 +-------------------------------------------------+
 |                                                 |
 |      CCC   AA    SSS  TTTTT  EEEEE  PPPP        |
 |     C     A  A  S       T    E      P   P       |
 |     C     AAAA   SS     T    EEE    PPPP        |
 |     C     A  A     S    T    E      P           |
 |      CCC  A  A  SSS     T    EEEEE  P           |
 |                                                 |
 +-------------------------------------------------+
 |                                                 |
 | Welcome to Academic Release CASTEP version 18.1 |          
 | Ab Initio Total Energy Program                  |
 |                                                 |
 | Authors:                                        |
 | M. Segall, M. Probert, C. Pickard, P. Hasnip,   |
 | S. Clark, K. Refson, J. R. Yates, M. Payne      |
 |                                                 |
 | Contributors:                                   |
 | P. Lindan, P. Haynes, J. White, V. Milman,      |
 | N. Govind, M. Gibson, P. Tulip, V. Cocula,      |
 | B. Montanari, D. Quigley, M. Glover,            |
 | L. Bernasconi, A. Perlov, M. Plummer,           |
 | E. McNellis, J. Meyer, J. Gale, D. Jochym       |
 | J. Aarons, B. Walker, R. Gillen, D. Jones       |
 | T. Green, I. J. Bush, C. J. Armstrong,          |
 | E. J. Higgins, E. L. Brown, M. S. McFly,        |
 | J. Wilkins, B-C. Shih, P. J. P. Byrne           |
 |                                                 |
 | Copyright (c) 2000 - 2017                       |
 |                                                 |
 |     Distributed under the terms of an           |
 |     Agreement between the United Kingdom        |
 |     Car-Parrinello (UKCP) Consortium,           |
 |     Daresbury Laboratory and Accelrys, Inc.     |
 |                                                 |
 | Please cite                                     |
 |                                                 |
 |     "First principles methods using CASTEP"     |
 |                                                 |
 |         Zeitschrift fuer Kristallographie       |
 |           220(5-6) pp. 567-570 (2005)           |
 |                                                 |
 | S. J. Clark, M. D. Segall, C. J. Pickard,       |
 | P. J. Hasnip, M. J. Probert, K. Refson,         |
 | M. C. Payne                                     |
 |                                                 |
 |       in all publications arising from          |
 |              your use of CASTEP                 |
 |                                                 |
 +-------------------------------------------------+


 Compiled for linux_x86_64_gfortran7.0 on Fri, 02 Nov 2018 10:15:56 +0000
 from code version d7158031f363+  Mon, 11 Dec 2017 11:00:52 +0000
 Compiler: GNU Fortran 7.3.0; Optimisation: fast
 MATHLIBS: generic (LAPACK version 3.7.1)
 FFT Lib : fftw3 version fftw-3.3.7-sse2-avx
 Fundamental constants values: CODATA 2014

 Run started: Fri, 16 Oct 2020 10:44:47 +0100

 Atomic calculation performed for O: 1s2 2s2 2p4

 Converged in 60 iterations to an ae energy of -2027.926 eV

   ============================================================                
   | Pseudopotential Report - Date of generation 16-10-2020   |                
   ------------------------------------------------------------                
   | Element: O Ionic charge:  6.00 Level of theory: LDA      |                
   | Atomic Solver: Koelling-Harmon                           |                
   |                                                          |                
   |               Reference Electronic Structure             |                
   |         Orbital         Occupation         Energy        |                
   |            2s              2.000           -0.873        |                
   |            2p              4.000           -0.338        |                
   |                                                          |                
   |                 Pseudopotential Definition               |                
   |        Beta     l      e      Rc     scheme   norm       |                
   |          1      0   -0.873   1.100     qc      0         |                
   |          2      0    0.250   1.100     qc      0         |                
   |          3      1   -0.338   1.100     qc      0         |                
   |          4      1    0.250   1.100     qc      0         |                
   |         loc     2    0.000   1.100     pn      0         |                
   |                                                          |                
   | Augmentation charge Rinner = 0.769                       |                
   | Partial core correction Rc = 0.769                       |                
   ------------------------------------------------------------                
   | "2|1.1|17|20|23|20:21(qc=8)"                             |                
   ------------------------------------------------------------                
   |      Author: Chris J. Pickard, Cambridge University      |                
   ============================================================                

 Atomic calculation performed for Mg: 1s2 2s2 2p6 3s2

 Converged in 47 iterations to an ae energy of -5427.408 eV

   ============================================================                
   | Pseudopotential Report - Date of generation 16-10-2020   |                
   ------------------------------------------------------------                
   | Element: Mg Ionic charge: 10.00 Level of theory: LDA     |                
   | Atomic Solver: Koelling-Harmon                           |                
   |                                                          |                
   |               Reference Electronic Structure             |                
   |         Orbital         Occupation         Energy        |                
   |            2s              2.000           -2.914        |                
   |            2p              6.000           -1.717        |                
   |            3s              2.000           -0.176        |                
   |                                                          |                
   |                 Pseudopotential Definition               |                
   |        Beta     l      e      Rc     scheme   norm       |                
   |          1      0   -2.914   1.804     qc      0         |                
   |          2      0   -0.176   1.804     qc      0         |                
   |          3      0    0.250   1.804     qc      0         |                
   |          4      1   -1.717   1.804     qc      0         |                
   |          5      1    0.250   1.804     qc      0         |                
   |          6      2    0.000   1.804     qc      0         |                
   |          7      2    0.250   1.804     qc      0         |                
   |         loc     3    0.000   1.804     pn      0         |                
   |                                                          |                
   | Augmentation charge Rinner = 1.261                       |                
   | Partial core correction Rc = 1.261                       |                
   ------------------------------------------------------------                
   | "3|1.8|7|8|9|20U:30:21:32"                               |                
   ------------------------------------------------------------                
   |      Author: Chris J. Pickard, Cambridge University      |                
   ============================================================                

 Atomic calculation performed for Ca: 1s2 2s2 2p6 3s2 3p6 4s2

 Converged in 44 iterations to an ae energy of -18468.059 eV

   ============================================================                
   | Pseudopotential Report - Date of generation 16-10-2020   |                
   ------------------------------------------------------------                
   | Element: Ca Ionic charge: 10.00 Level of theory: LDA     |                
   | Atomic Solver: Koelling-Harmon                           |                
   |                                                          |                
   |               Reference Electronic Structure             |                
   |         Orbital         Occupation         Energy        |                
   |            3s              2.000           -1.721        |                
   |            3p              6.000           -1.028        |                
   |            4s              2.000           -0.142        |                
   |                                                          |                
   |                 Pseudopotential Definition               |                
   |        Beta     l      e      Rc     scheme   norm       |                
   |          1      0   -1.721   2.005     qc      0         |                
   |          2      0   -0.142   2.005     qc      0         |                
   |          3      0    0.250   2.005     qc      0         |                
   |          4      1   -1.028   2.005     qc      0         |                
   |          5      1    0.250   2.005     qc      0         |                
   |          6      2    0.000   2.005     qc      0         |                
   |          7      2    0.250   2.005     qc      0         |                
   |         loc     3    0.000   2.005     pn      0         |                
   |                                                          |                
   | Augmentation charge Rinner = 1.401                       |                
   | Partial core correction Rc = 1.401                       |                
   ------------------------------------------------------------                
   | "3|2.0|7|8|9|30U:40:31:32"                               |                
   ------------------------------------------------------------                
   |      Author: Chris J. Pickard, Cambridge University      |                
   ============================================================                

 Pseudo atomic calculation performed for O 2s2 2p4

 Converged in 27 iterations to a total energy of -404.4576 eV


 Pseudo atomic calculation performed for Mg 2s2 2p6 3s2

 Converged in 19 iterations to a total energy of -1684.3836 eV


 Pseudo atomic calculation performed for Ca 3s2 3p6 4s2

 Converged in 24 iterations to a total energy of -1001.5497 eV

 Calculation not parallelised.

 ************************************ Title ************************************
 MgO

 ***************************** General Parameters ******************************
  
 output verbosity                               : normal  (1)
 write checkpoint data to                       : MgO.check
 type of calculation                            : geometry optimization
 stress calculation                             : on
 density difference calculation                 : off
 electron localisation func (ELF) calculation   : off
 Hirshfeld analysis                             : off
 unlimited duration calculation
 timing information                             : on
 memory usage estimate                          : on
 write extra output files                       : on
 write final potential to formatted file        : off
 write final density to formatted file          : off
 write BibTeX reference list                    : on
 write OTFG pseudopotential files               : on
 write electrostatic potential file             : on
 write bands file                               : on
 checkpoint writing                             : both castep_bin and check files
  
 output         length unit                     : A
 output           mass unit                     : amu
 output           time unit                     : ps
 output         charge unit                     : e
 output           spin unit                     : hbar/2
 output         energy unit                     : eV
 output          force unit                     : eV/A
 output       velocity unit                     : A/ps
 output       pressure unit                     : GPa
 output     inv_length unit                     : 1/A
 output      frequency unit                     : cm-1
 output force constant unit                     : eV/A**2
 output         volume unit                     : A**3
 output   IR intensity unit                     : (D/A)**2/amu
 output         dipole unit                     : D
 output         efield unit                     : eV/A/e
 output        entropy unit                     : J/mol/K
  
 wavefunctions paging                           : none
 random number generator seed                   : randomised (104447398)
 data distribution                              : optimal for this architecture
 optimization strategy                          : maximize speed(+++)

 *********************** Exchange-Correlation Parameters ***********************
  
 using functional                               : Local Density Approximation
 relativistic treatment                         : Koelling-Harmon
 DFT+D: Semi-empirical dispersion correction    : off

 ************************* Pseudopotential Parameters **************************
  
 pseudopotential representation                 : reciprocal space
 <beta|phi> representation                      : reciprocal space
 spin-orbit coupling                            : off

 **************************** Basis Set Parameters *****************************
  
 plane wave basis set cut-off                   :   300.0000   eV
 size of standard grid                          :     2.0000
 size of   fine   gmax                          :    17.7472   1/A
 finite basis set correction                    : automatic
 number of sample energies                      :          3
           sample  spacing                      :     5.0000   eV

 **************************** Electronic Parameters ****************************
  
 number of  electrons                           :  64.00    
 net charge of system                           :  0.000    
 treating system as non-spin-polarized
 number of bands                                :         38

 ********************* Electronic Minimization Parameters **********************
  
 Method: Treating system as metallic with density mixing treatment of electrons,
         and number of  SD  steps               :          1
         and number of  CG  steps               :          4
  
 total energy / atom convergence tol.           : 0.1000E-06   eV
 eigen-energy convergence tolerance             : 0.2500E-07   eV
 max force / atom convergence tol.              : ignored
 convergence tolerance window                   :          3   cycles
 max. number of SCF cycles                      :         60
 number of fixed-spin iterations                :         10
 smearing scheme                                : Gaussian
 smearing width                                 : 0.2000       eV
 Fermi energy convergence tolerance             : 0.2721E-13   eV
 periodic dipole correction                     : NONE

 ************************** Density Mixing Parameters **************************
  
 density-mixing scheme                          : Pulay
 max. length of mixing history                  :         30
 charge density mixing amplitude                : 0.8000    
 cut-off energy for mixing                      :  300.0       eV

 *********************** Population Analysis Parameters ************************
  
 Population analysis with cutoff                :  3.000       A
 Population analysis output                     : summary and pdos components

 ********************** Geometry Optimization Parameters ***********************
  
 optimization method                            : LBFGS
 max. no. of LBFGS updates                      : unbounded
 variable cell method                           : fixed basis quality
 max. number of steps                           :         30
 estimated bulk modulus                         :  500.0       GPa
 estimated <frequency>                          :  1668.       cm-1
 geom line minimiser                            : on
 with line minimiser tolerance                  :     0.4000
 total energy convergence tolerance             : 0.2000E-04   eV/atom
        max ionic |force| tolerance             : 0.5000E-01   eV/A
 max ionic |displacement| tolerance             : 0.1000E-02   A
   max |stress component| tolerance             : 0.1000       GPa
 convergence tolerance window                   :          2   steps
 backup results every                           :          5   steps
 write geom trajectory file                     : on

 *******************************************************************************
  

                           -------------------------------
                                      Unit Cell
                           -------------------------------
        Real Lattice(A)                      Reciprocal Lattice(1/A)
     4.3600000     0.0000000     0.0000000        1.441097548   0.000000000   0.000000000
     0.0000000     4.3600000     0.0000000        0.000000000   1.441097548   0.000000000
     0.0000000     0.0000000     4.3600000        0.000000000   0.000000000   1.441097548

                       Lattice parameters(A)       Cell Angles
                    a =      4.360000          alpha =   90.000000
                    b =      4.360000          beta  =   90.000000
                    c =      4.360000          gamma =   90.000000

                       Current cell volume =            82.881856       A**3
                                   density =             2.135457   AMU/A**3
                                           =             3.546009     g/cm^3

                           -------------------------------
                                     Cell Contents
                           -------------------------------
                         Total number of ions in cell =    8
                      Total number of species in cell =    3
                        Max number of any one species =    4

            xxxxxxxxxxxxxxxxxxxxxxxxxxxxxxxxxxxxxxxxxxxxxxxxxxxxxxxxxxxx
            x  Element    Atom        Fractional coordinates of atoms  x
            x            Number           u          v          w      x
            x----------------------------------------------------------x
            x  O            1         0.500000   0.500000   0.500000   x 
            x  O            2         0.500000   0.000000   0.000000   x 
            x  O            3         0.000000   0.500000   0.000000   x 
            x  O            4         0.000000   0.000000   0.500000   x 
            x  Mg           1         0.000000   0.500000   0.500000   x 
            x  Mg           2         0.500000   0.000000   0.500000   x 
            x  Mg           3         0.500000   0.500000   0.000000   x 
            x  Ca           1         0.000000   0.000000   0.000000   x 
            xxxxxxxxxxxxxxxxxxxxxxxxxxxxxxxxxxxxxxxxxxxxxxxxxxxxxxxxxxxx


                         No user defined ionic velocities

                           -------------------------------
                                   Details of Species
                           -------------------------------

                               Mass of species in AMU
                                    O   15.9994000
                                    Mg   24.3050000
                                    Ca   40.0780000

                          Electric Quadrupole Moment (Barn)
                                    O   -0.0255800 Isotope 17
                                    Mg    0.1994000 Isotope 25
                                    Ca   -0.0408000 Isotope 43

                          Files used for pseudopotentials:
                                    O 2|1.1|17|20|23|20:21(qc=8)
                                    Mg 3|1.8|7|8|9|20U:30:21:32
                                    Ca 3|2.0|7|8|9|30U:40:31:32

                           -------------------------------
                              k-Points For BZ Sampling
                           -------------------------------
                       MP grid size for SCF calculation is  3  3  3
                            with an offset of   0.000  0.000  0.000
                       Number of kpoints used =             4

                           -------------------------------
                               Symmetry and Constraints
                           -------------------------------

                      Maximum deviation from symmetry =  0.00000         ANG

                      Number of symmetry operations   =          48
                      Number of ionic constraints     =           3
                      Point group of crystal =    32: Oh, m-3m, 4/m -3 2/m
                      Space group of crystal =   221: Pm-3m, -P 4 2 3

             Set iprint > 1 for details on symmetry rotations/translations

                         Centre of mass is constrained
             Set iprint > 1 for details of linear ionic constraints

                         Number of cell constraints= 5
                         Cell constraints are:  1 1 1 0 0 0

                         External pressure/stress (GPa)
                          0.00000   0.00000   0.00000
                                    0.00000   0.00000
                                              0.00000
  
+---------------- MEMORY AND SCRATCH DISK ESTIMATES PER PROCESS --------------+
|                                                     Memory          Disk    |
| Baseline code, static data and system overhead     1370.0 MB         0.0 MB |
| BLAS internal memory storage                          0.0 MB         0.0 MB |
| Model and support data                              103.6 MB         0.0 MB |
| Electronic energy minimisation requirements          11.8 MB         0.0 MB |
| Force calculation requirements                        2.3 MB         0.0 MB |
| Stress calculation requirements                       2.5 MB         0.0 MB |
|                                               ----------------------------- |
| Approx. total storage required per process         1485.4 MB         0.0 MB |
|                                                                             |
| Requirements will fluctuate during execution and may exceed these estimates |
+-----------------------------------------------------------------------------+
Calculating finite basis set correction with  3 cut-off energies.
Calculating total energy with cut-off of  290.000 eV.
------------------------------------------------------------------------ <-- SCF
SCF loop      Energy           Fermi           Energy gain       Timer   <-- SCF
                               energy          per atom          (sec)   <-- SCF
------------------------------------------------------------------------ <-- SCF
Initial  -6.06990730E+003  0.00000000E+000                        19.16  <-- SCF
      1  -7.56715881E+003  9.39725488E+000   1.87156439E+002      20.24  <-- SCF
      2  -7.72274512E+003  4.41436929E+000   1.94482888E+001      21.20  <-- SCF
      3  -7.72510317E+003  4.44440576E+000   2.94756011E-001      22.12  <-- SCF
      4  -7.72171970E+003  6.50975953E+000  -4.22933307E-001      23.20  <-- SCF
      5  -7.72071058E+003  5.99129780E+000  -1.26140566E-001      24.23  <-- SCF
      6  -7.72066606E+003  6.13205168E+000  -5.56430646E-003      25.32  <-- SCF
      7  -7.72066479E+003  6.12387409E+000  -1.59284767E-004      26.36  <-- SCF
      8  -7.72066452E+003  6.12696202E+000  -3.40472206E-005      27.37  <-- SCF
      9  -7.72066451E+003  6.12667739E+000  -5.92259407E-007      28.28  <-- SCF
     10  -7.72066451E+003  6.12675429E+000   3.93908953E-009      29.00  <-- SCF
     11  -7.72066451E+003  6.12676455E+000   1.24671130E-009      29.65  <-- SCF
------------------------------------------------------------------------ <-- SCF
 
Final energy, E             =  -7720.664317347     eV
Final free energy (E-TS)    =  -7720.664511911     eV
(energies not corrected for finite basis set)
 
NB est. 0K energy (E-0.5TS)      =  -7720.664414629     eV
 
Calculating total energy with cut-off of  295.000 eV.
------------------------------------------------------------------------ <-- SCF
SCF loop      Energy           Fermi           Energy gain       Timer   <-- SCF
                               energy          per atom          (sec)   <-- SCF
------------------------------------------------------------------------ <-- SCF
Initial  -7.72066432E+003  0.00000000E+000                        30.05  <-- SCF
      1  -7.72375603E+003  5.95069814E+000   3.86464251E-001      30.88  <-- SCF
      2  -7.72376659E+003  5.95119742E+000   1.31929814E-003      31.96  <-- SCF
      3  -7.72375264E+003  6.07167585E+000  -1.74308625E-003      32.94  <-- SCF
      4  -7.72374470E+003  6.02004498E+000  -9.92116826E-004      33.99  <-- SCF
      5  -7.72374470E+003  6.02485340E+000  -5.76172809E-008      35.10  <-- SCF
      6  -7.72374471E+003  6.02418635E+000   6.47577773E-007      36.03  <-- SCF
      7  -7.72374470E+003  6.02499149E+000  -9.07909770E-007      36.96  <-- SCF
      8  -7.72374470E+003  6.02467144E+000  -6.73222169E-008      37.67  <-- SCF
      9  -7.72374470E+003  6.02468723E+000   9.48567872E-010      38.17  <-- SCF
------------------------------------------------------------------------ <-- SCF
 
Final energy, E             =  -7723.744691615     eV
Final free energy (E-TS)    =  -7723.744701039     eV
(energies not corrected for finite basis set)
 
NB est. 0K energy (E-0.5TS)      =  -7723.744696327     eV
 
Calculating total energy with cut-off of  300.000 eV.
------------------------------------------------------------------------ <-- SCF
SCF loop      Energy           Fermi           Energy gain       Timer   <-- SCF
                               energy          per atom          (sec)   <-- SCF
------------------------------------------------------------------------ <-- SCF
Initial  -7.72374469E+003  0.00000000E+000                        38.59  <-- SCF
      1  -7.72899977E+003  6.00278667E+000   6.56884695E-001      39.40  <-- SCF
      2  -7.72902815E+003  6.00278674E+000   3.54711342E-003      40.39  <-- SCF
      3  -7.72898991E+003  6.20418092E+000  -4.77931010E-003      41.49  <-- SCF
      4  -7.72896641E+003  6.12111085E+000  -2.93719061E-003      42.55  <-- SCF
      5  -7.72896665E+003  6.12478237E+000   2.99641058E-005      43.64  <-- SCF
      6  -7.72896666E+003  6.12388384E+000   3.93536564E-007      44.53  <-- SCF
      7  -7.72896664E+003  6.12496065E+000  -1.58360390E-006      45.35  <-- SCF
      8  -7.72896664E+003  6.12462389E+000  -9.63931346E-008      46.11  <-- SCF
      9  -7.72896664E+003  6.12461610E+000   8.77222266E-010      46.81  <-- SCF
------------------------------------------------------------------------ <-- SCF
 
Final energy, E             =  -7728.966610275     eV
Final free energy (E-TS)    =  -7728.966643506     eV
(energies not corrected for finite basis set)
 
NB est. 0K energy (E-0.5TS)      =  -7728.966626891     eV
 
 For future reference: finite basis dEtot/dlog(Ecut) =    -237.622221eV
 Total energy corrected for finite basis set =   -7728.223891 eV
 
+---------------- MEMORY AND SCRATCH DISK ESTIMATES PER PROCESS --------------+
|                                                     Memory          Disk    |
| Model and support data                              113.9 MB         0.0 MB |
| Electronic energy minimisation requirements          11.8 MB         0.0 MB |
| Geometry minimisation requirements                   14.6 MB         0.0 MB |
|                                               ----------------------------- |
| Approx. total storage required per process          140.3 MB         0.0 MB |
|                                                                             |
| Requirements will fluctuate during execution and may exceed these estimates |
+-----------------------------------------------------------------------------+
 

 *********** Symmetrised Stress Tensor ***********
 *                                               *
 *          Cartesian components (GPa)           *
 * --------------------------------------------- *
 *             x             y             z     *
 *                                               *
 *  x    -25.945918      0.000000      0.000000  *
 *  y      0.000000    -25.945918      0.000000  *
 *  z      0.000000      0.000000    -25.945918  *
 *                                               *
 *  Pressure:   25.9459                          *
 *                                               *
 *************************************************
 LBFGS: finished iteration     0 with enthalpy= -7.72822389E+003 eV
  
 +-----------+-----------------+-----------------+------------+-----+ <-- LBFGS
 | Parameter |      value      |    tolerance    |    units   | OK? | <-- LBFGS
 +-----------+-----------------+-----------------+------------+-----+ <-- LBFGS
 |  dE/ion   |   0.000000E+000 |   2.000000E-005 |         eV | No  | <-- LBFGS
 |   Smax    |   2.594592E+001 |   1.000000E-001 |        GPa | No  | <-- LBFGS
 +-----------+-----------------+-----------------+------------+-----+ <-- LBFGS
  

================================================================================
 Starting LBFGS iteration          1 ...
================================================================================
  
 +------------+-------------+-------------+-----------------+ <-- min LBFGS
 |    Step    |   lambda    |   F.delta'  |    enthalpy     | <-- min LBFGS
 +------------+-------------+-------------+-----------------+ <-- min LBFGS
 |  previous  |    0.000000 |    0.854335 |    -7728.223891 | <-- min LBFGS
 +------------+-------------+-------------+-----------------+ <-- min LBFGS
  

--------------------------------------------------------------------------------
 LBFGS: starting iteration         1 with trial guess (lambda=  1.000000)
--------------------------------------------------------------------------------
 
+---------------- MEMORY AND SCRATCH DISK ESTIMATES PER PROCESS --------------+
|                                                     Memory          Disk    |
| Model and support data                              127.7 MB         0.0 MB |
| Electronic energy minimisation requirements          12.7 MB         0.0 MB |
| Geometry minimisation requirements                   15.7 MB         0.0 MB |
|                                               ----------------------------- |
| Approx. total storage required per process          156.1 MB         0.0 MB |
|                                                                             |
| Requirements will fluctuate during execution and may exceed these estimates |
+-----------------------------------------------------------------------------+
 

                           -------------------------------
                                      Unit Cell
                           -------------------------------
        Real Lattice(A)              Reciprocal Lattice(1/A)
     4.4354161    -0.0000000    -0.0000000        1.416594321   0.000000000   0.000000000
    -0.0000000     4.4354161    -0.0000000        0.000000000   1.416594321   0.000000000
    -0.0000000    -0.0000000     4.4354161        0.000000000   0.000000000   1.416594321

                       Lattice parameters(A)       Cell Angles
                    a =      4.435416          alpha =   90.000000
                    b =      4.435416          beta  =   90.000000
                    c =      4.435416          gamma =   90.000000

                Current cell volume =            87.257570 A**3

------------------------------------------------------------------------ <-- SCF
SCF loop      Energy           Fermi           Energy gain       Timer   <-- SCF
                               energy          per atom          (sec)   <-- SCF
------------------------------------------------------------------------ <-- SCF
Initial  -7.71972419E+003  0.00000000E+000                        51.72  <-- SCF
      1  -7.72983787E+003  5.13172978E+000   1.26420988E+000      53.04  <-- SCF
      2  -7.72991279E+003  5.13151675E+000   9.36407766E-003      54.91  <-- SCF
      3  -7.72881774E+003  5.67601230E+000  -1.36880673E-001      56.50  <-- SCF
      4  -7.72872647E+003  5.45738464E+000  -1.14090110E-002      58.10  <-- SCF
      5  -7.72871938E+003  5.50304854E+000  -8.85821480E-004      59.72  <-- SCF
      6  -7.72871926E+003  5.50524886E+000  -1.47346802E-005      61.32  <-- SCF
      7  -7.72871926E+003  5.50468302E+000  -2.60834510E-007      62.62  <-- SCF
      8  -7.72871926E+003  5.50480869E+000  -4.35821114E-008      63.64  <-- SCF
      9  -7.72871926E+003  5.50486282E+000  -5.34995373E-010      64.62  <-- SCF
------------------------------------------------------------------------ <-- SCF
 
Final energy, E             =  -7728.718658453     eV
Final free energy (E-TS)    =  -7728.719261925     eV
(energies not corrected for finite basis set)
 
NB est. 0K energy (E-0.5TS)      =  -7728.718960189     eV
 

 *********** Symmetrised Stress Tensor ***********
 *                                               *
 *          Cartesian components (GPa)           *
 * --------------------------------------------- *
 *             x             y             z     *
 *                                               *
 *  x    -19.182763      0.000000      0.000000  *
 *  y      0.000000    -19.182763      0.000000  *
 *  z      0.000000      0.000000    -19.182763  *
 *                                               *
 *  Pressure:   19.1828                          *
 *                                               *
 *************************************************
  
 +------------+-------------+-------------+-----------------+ <-- min LBFGS
 |    Step    |   lambda    |   F.delta'  |    enthalpy     | <-- min LBFGS
 +------------+-------------+-------------+-----------------+ <-- min LBFGS
 |  previous  |    0.000000 |    0.854335 |    -7728.223891 | <-- min LBFGS
 | trial step |    1.000000 |    0.653681 |    -7728.582956 | <-- min LBFGS
 +------------+-------------+-------------+-----------------+ <-- min LBFGS
  

--------------------------------------------------------------------------------
 LBFGS: improving iteration         1 with line minimization (lambda=  3.508382)
--------------------------------------------------------------------------------
 
+---------------- MEMORY AND SCRATCH DISK ESTIMATES PER PROCESS --------------+
|                                                     Memory          Disk    |
| Model and support data                              128.4 MB         0.0 MB |
| Electronic energy minimisation requirements          14.0 MB         0.0 MB |
| Geometry minimisation requirements                   17.4 MB         0.0 MB |
|                                               ----------------------------- |
| Approx. total storage required per process          159.8 MB         0.0 MB |
|                                                                             |
| Requirements will fluctuate during execution and may exceed these estimates |
+-----------------------------------------------------------------------------+
 

                           -------------------------------
                                      Unit Cell
                           -------------------------------
        Real Lattice(A)              Reciprocal Lattice(1/A)
     4.6245886    -0.0000000    -0.0000000        1.358647405   0.000000000   0.000000000
    -0.0000000     4.6245886    -0.0000000        0.000000000   1.358647405   0.000000000
    -0.0000000    -0.0000000     4.6245886        0.000000000   0.000000000   1.358647405

                       Lattice parameters(A)       Cell Angles
                    a =      4.624589          alpha =   90.000000
                    b =      4.624589          beta  =   90.000000
                    c =      4.624589          gamma =   90.000000

                Current cell volume =            98.905243 A**3

------------------------------------------------------------------------ <-- SCF
SCF loop      Energy           Fermi           Energy gain       Timer   <-- SCF
                               energy          per atom          (sec)   <-- SCF
------------------------------------------------------------------------ <-- SCF
Initial  -7.69915530E+003  0.00000000E+000                        66.65  <-- SCF
      1  -7.73558716E+003  3.29010059E+000   4.55398157E+000      68.14  <-- SCF
      2  -7.73592261E+003  3.28989629E+000   4.19322954E-002      69.57  <-- SCF
      3  -7.72908025E+003  4.94124915E+000  -8.55295282E-001      71.23  <-- SCF
      4  -7.72828336E+003  4.01682930E+000  -9.96110844E-002      72.94  <-- SCF
      5  -7.72821164E+003  4.18162404E+000  -8.96605977E-003      74.61  <-- SCF
      6  -7.72821222E+003  4.18466620E+000   7.30676229E-005      76.30  <-- SCF
      7  -7.72821220E+003  4.18558792E+000  -2.11578277E-006      77.72  <-- SCF
      8  -7.72821220E+003  4.18486415E+000  -6.83222928E-007      79.13  <-- SCF
      9  -7.72821220E+003  4.18504685E+000  -3.21091965E-008      80.17  <-- SCF
     10  -7.72821220E+003  4.18509422E+000   1.04156851E-009      81.09  <-- SCF
     11  -7.72821220E+003  4.18509247E+000   3.04910627E-010      82.11  <-- SCF
------------------------------------------------------------------------ <-- SCF
 
Final energy, E             =  -7728.199947384     eV
Final free energy (E-TS)    =  -7728.212197038     eV
(energies not corrected for finite basis set)
 
NB est. 0K energy (E-0.5TS)      =  -7728.206072211     eV
 

 *********** Symmetrised Stress Tensor ***********
 *                                               *
 *          Cartesian components (GPa)           *
 * --------------------------------------------- *
 *             x             y             z     *
 *                                               *
 *  x     -7.345160      0.000000      0.000000  *
 *  y      0.000000     -7.345160      0.000000  *
 *  z      0.000000      0.000000     -7.345160  *
 *                                               *
 *  Pressure:    7.3452                          *
 *                                               *
 *************************************************
  
 +------------+-------------+-------------+-----------------+ <-- min LBFGS
 |    Step    |   lambda    |   F.delta'  |    enthalpy     | <-- min LBFGS
 +------------+-------------+-------------+-----------------+ <-- min LBFGS
 |  previous  |    0.000000 |    0.854335 |    -7728.223891 | <-- min LBFGS
 | trial step |    1.000000 |    0.653681 |    -7728.582956 | <-- min LBFGS
 |  line step |    3.508382 |    0.272103 |    -7728.568365 | <-- min LBFGS
 +------------+-------------+-------------+-----------------+ <-- min LBFGS
  

--------------------------------------------------------------------------------
 LBFGS: improving iteration         1 with quad minimization (lambda=  5.297108)
--------------------------------------------------------------------------------
 
+---------------- MEMORY AND SCRATCH DISK ESTIMATES PER PROCESS --------------+
|                                                     Memory          Disk    |
| Model and support data                              128.9 MB         0.0 MB |
| Electronic energy minimisation requirements          15.1 MB         0.0 MB |
| Geometry minimisation requirements                   18.8 MB         0.0 MB |
|                                               ----------------------------- |
| Approx. total storage required per process          162.8 MB         0.0 MB |
|                                                                             |
| Requirements will fluctuate during execution and may exceed these estimates |
+-----------------------------------------------------------------------------+
 

                           -------------------------------
                                      Unit Cell
                           -------------------------------
        Real Lattice(A)              Reciprocal Lattice(1/A)
     4.7594874    -0.0000000    -0.0000000        1.320139073   0.000000000   0.000000000
    -0.0000000     4.7594874    -0.0000000        0.000000000   1.320139073   0.000000000
    -0.0000000    -0.0000000     4.7594874        0.000000000   0.000000000   1.320139073

                       Lattice parameters(A)       Cell Angles
                    a =      4.759487          alpha =   90.000000
                    b =      4.759487          beta  =   90.000000
                    c =      4.759487          gamma =   90.000000

                Current cell volume =           107.815338 A**3

------------------------------------------------------------------------ <-- SCF
SCF loop      Energy           Fermi           Energy gain       Timer   <-- SCF
                               energy          per atom          (sec)   <-- SCF
------------------------------------------------------------------------ <-- SCF
Initial  -7.70985847E+003  0.00000000E+000                        84.12  <-- SCF
      1  -7.73177683E+003  2.48557328E+000   2.73979468E+000      85.57  <-- SCF
      2  -7.73199246E+003  2.48508756E+000   2.69540640E-002      87.10  <-- SCF
      3  -7.72881772E+003  3.80621779E+000  -3.96842758E-001      88.74  <-- SCF
      4  -7.72819011E+003  3.05322957E+000  -7.84508483E-002      90.48  <-- SCF
      5  -7.72815093E+003  3.18043160E+000  -4.89775528E-003      92.19  <-- SCF
      6  -7.72815133E+003  3.18073731E+000   4.93669560E-005      93.93  <-- SCF
      7  -7.72815128E+003  3.18332554E+000  -6.46540381E-006      95.47  <-- SCF
      8  -7.72815127E+003  3.18238792E+000  -4.95739822E-007      96.94  <-- SCF
      9  -7.72815127E+003  3.18268743E+000  -2.37859291E-008      98.03  <-- SCF
     10  -7.72815127E+003  3.18275888E+000   1.07598455E-009      99.07  <-- SCF
     11  -7.72815127E+003  3.18274540E+000  -1.74013674E-012     100.14  <-- SCF
------------------------------------------------------------------------ <-- SCF
 
Final energy, E             =  -7728.136349472     eV
Final free energy (E-TS)    =  -7728.151270915     eV
(energies not corrected for finite basis set)
 
NB est. 0K energy (E-0.5TS)      =  -7728.143810193     eV
 

 *********** Symmetrised Stress Tensor ***********
 *                                               *
 *          Cartesian components (GPa)           *
 * --------------------------------------------- *
 *             x             y             z     *
 *                                               *
 *  x     -0.368977      0.000000      0.000000  *
 *  y      0.000000     -0.368977      0.000000  *
 *  z      0.000000      0.000000     -0.368977  *
 *                                               *
 *  Pressure:    0.3690                          *
 *                                               *
 *************************************************
  
 +------------+-------------+-------------+-----------------+ <-- min LBFGS
 |    Step    |   lambda    |   F.delta'  |    enthalpy     | <-- min LBFGS
 +------------+-------------+-------------+-----------------+ <-- min LBFGS
 |  previous  |    0.000000 |    0.854335 |    -7728.223891 | <-- min LBFGS
 | trial step |    1.000000 |    0.653681 |    -7728.582956 | <-- min LBFGS
 |  line step |    3.508382 |    0.272103 |    -7728.568365 | <-- min LBFGS
 |  quad step |    5.297108 |    0.014478 |    -7727.647799 | <-- min LBFGS
 +------------+-------------+-------------+-----------------+ <-- min LBFGS
  
 LBFGS: finished iteration     1 with enthalpy= -7.72764780E+003 eV
  
 +-----------+-----------------+-----------------+------------+-----+ <-- LBFGS
 | Parameter |      value      |    tolerance    |    units   | OK? | <-- LBFGS
 +-----------+-----------------+-----------------+------------+-----+ <-- LBFGS
 |  dE/ion   |   7.201157E-002 |   2.000000E-005 |         eV | No  | <-- LBFGS
 |   Smax    |   3.689775E-001 |   1.000000E-001 |        GPa | No  | <-- LBFGS
 +-----------+-----------------+-----------------+------------+-----+ <-- LBFGS
  

================================================================================
 Starting LBFGS iteration          2 ...
================================================================================
  
 +------------+-------------+-------------+-----------------+ <-- min LBFGS
 |    Step    |   lambda    |   F.delta'  |    enthalpy     | <-- min LBFGS
 +------------+-------------+-------------+-----------------+ <-- min LBFGS
 |  previous  |    0.000000 |    0.014478 |    -7727.647799 | <-- min LBFGS
 +------------+-------------+-------------+-----------------+ <-- min LBFGS
  

--------------------------------------------------------------------------------
 LBFGS: starting iteration         2 with trial guess (lambda=  1.000000)
--------------------------------------------------------------------------------

                           -------------------------------
                                      Unit Cell
                           -------------------------------
        Real Lattice(A)              Reciprocal Lattice(1/A)
     4.7663740    -0.0000000    -0.0000000        1.318231699   0.000000000   0.000000000
    -0.0000000     4.7663740    -0.0000000        0.000000000   1.318231699   0.000000000
    -0.0000000    -0.0000000     4.7663740        0.000000000   0.000000000   1.318231699

                       Lattice parameters(A)       Cell Angles
                    a =      4.766374          alpha =   90.000000
                    b =      4.766374          beta  =   90.000000
                    c =      4.766374          gamma =   90.000000

                Current cell volume =           108.284016 A**3

------------------------------------------------------------------------ <-- SCF
SCF loop      Energy           Fermi           Energy gain       Timer   <-- SCF
                               energy          per atom          (sec)   <-- SCF
------------------------------------------------------------------------ <-- SCF
Initial  -7.72743813E+003  0.00000000E+000                       102.45  <-- SCF
      1  -7.72747218E+003  3.13171301E+000   4.25656112E-003     103.96  <-- SCF
      2  -7.72747231E+003  3.13171282E+000   1.57218472E-005     106.01  <-- SCF
      3  -7.72746629E+003  3.15629435E+000  -7.52777798E-004     107.71  <-- SCF
      4  -7.72746617E+003  3.14354528E+000  -1.51860241E-005     109.32  <-- SCF
      5  -7.72746611E+003  3.14803841E+000  -7.16353430E-006     110.86  <-- SCF
      6  -7.72746611E+003  3.14799771E+000   2.18686851E-008     112.07  <-- SCF
      7  -7.72746611E+003  3.14804292E+000   1.58739140E-009     113.10  <-- SCF
------------------------------------------------------------------------ <-- SCF
 
Final energy, E             =  -7727.450314830     eV
Final free energy (E-TS)    =  -7727.466109317     eV
(energies not corrected for finite basis set)
 
NB est. 0K energy (E-0.5TS)      =  -7727.458212074     eV
 

 *********** Symmetrised Stress Tensor ***********
 *                                               *
 *          Cartesian components (GPa)           *
 * --------------------------------------------- *
 *             x             y             z     *
 *                                               *
 *  x     -0.986600      0.000000      0.000000  *
 *  y      0.000000     -0.986600      0.000000  *
 *  z      0.000000      0.000000     -0.986600  *
 *                                               *
 *  Pressure:    0.9866                          *
 *                                               *
 *************************************************
  
 +------------+-------------+-------------+-----------------+ <-- min LBFGS
 |    Step    |   lambda    |   F.delta'  |    enthalpy     | <-- min LBFGS
 +------------+-------------+-------------+-----------------+ <-- min LBFGS
 |  previous  |    0.000000 |    0.014478 |    -7727.647799 | <-- min LBFGS
 | trial step |    1.000000 |    0.038824 |    -7727.649780 | <-- min LBFGS
 +------------+-------------+-------------+-----------------+ <-- min LBFGS
  

--------------------------------------------------------------------------------
 LBFGS: improving iteration         2 with line minimization (lambda= -0.594665)
--------------------------------------------------------------------------------

                           -------------------------------
                                      Unit Cell
                           -------------------------------
        Real Lattice(A)              Reciprocal Lattice(1/A)
     4.7553922    -0.0000000    -0.0000000        1.321275941   0.000000000   0.000000000
    -0.0000000     4.7553922    -0.0000000        0.000000000   1.321275941   0.000000000
    -0.0000000    -0.0000000     4.7553922        0.000000000   0.000000000   1.321275941

                       Lattice parameters(A)       Cell Angles
                    a =      4.755392          alpha =   90.000000
                    b =      4.755392          beta  =   90.000000
                    c =      4.755392          gamma =   90.000000

                Current cell volume =           107.537274 A**3

------------------------------------------------------------------------ <-- SCF
SCF loop      Energy           Fermi           Energy gain       Timer   <-- SCF
                               energy          per atom          (sec)   <-- SCF
------------------------------------------------------------------------ <-- SCF
Initial  -7.72765505E+003  0.00000000E+000                       115.16  <-- SCF
      1  -7.72775617E+003  3.37853936E+000   1.26403620E-002     116.64  <-- SCF
      2  -7.72775669E+003  3.37853034E+000   6.50813718E-005     118.49  <-- SCF
      3  -7.72774100E+003  3.28435875E+000  -1.96082545E-003     120.16  <-- SCF
      4  -7.72773870E+003  3.33104048E+000  -2.87858561E-004     121.85  <-- SCF
      5  -7.72773847E+003  3.31925934E+000  -2.95287618E-005     123.41  <-- SCF
      6  -7.72773847E+003  3.31935003E+000   3.15957015E-007     124.76  <-- SCF
      7  -7.72773847E+003  3.31898298E+000  -8.48618285E-008     125.89  <-- SCF
      8  -7.72773847E+003  3.31900229E+000   4.46635097E-010     126.92  <-- SCF
------------------------------------------------------------------------ <-- SCF
 
Final energy, E             =  -7727.719610650     eV
Final free energy (E-TS)    =  -7727.738467547     eV
(energies not corrected for finite basis set)
 
NB est. 0K energy (E-0.5TS)      =  -7727.729039098     eV
 

 *********** Symmetrised Stress Tensor ***********
 *                                               *
 *          Cartesian components (GPa)           *
 * --------------------------------------------- *
 *             x             y             z     *
 *                                               *
 *  x     -1.424596      0.000000      0.000000  *
 *  y      0.000000     -1.424596      0.000000  *
 *  z      0.000000      0.000000     -1.424596  *
 *                                               *
 *  Pressure:    1.4246                          *
 *                                               *
 *************************************************
  
 +------------+-------------+-------------+-----------------+ <-- min LBFGS
 |    Step    |   lambda    |   F.delta'  |    enthalpy     | <-- min LBFGS
 +------------+-------------+-------------+-----------------+ <-- min LBFGS
 |  previous  |    0.000000 |    0.014478 |    -7727.647799 | <-- min LBFGS
 | trial step |    1.000000 |    0.038824 |    -7727.649780 | <-- min LBFGS
 |  line step |   -0.594665 |    0.055802 |    -7727.718587 | <-- min LBFGS
 +------------+-------------+-------------+-----------------+ <-- min LBFGS
  

--------------------------------------------------------------------------------
 LBFGS: improving iteration         2 with quad minimization (lambda=  0.797983)
--------------------------------------------------------------------------------

                           -------------------------------
                                      Unit Cell
                           -------------------------------
        Real Lattice(A)              Reciprocal Lattice(1/A)
     4.7649828    -0.0000000    -0.0000000        1.318616578   0.000000000   0.000000000
    -0.0000000     4.7649828    -0.0000000        0.000000000   1.318616578   0.000000000
    -0.0000000    -0.0000000     4.7649828        0.000000000   0.000000000   1.318616578

                       Lattice parameters(A)       Cell Angles
                    a =      4.764983          alpha =   90.000000
                    b =      4.764983          beta  =   90.000000
                    c =      4.764983          gamma =   90.000000

                Current cell volume =           108.189225 A**3

------------------------------------------------------------------------ <-- SCF
SCF loop      Energy           Fermi           Energy gain       Timer   <-- SCF
                               energy          per atom          (sec)   <-- SCF
------------------------------------------------------------------------ <-- SCF
Initial  -7.72674424E+003  0.00000000E+000                       129.04  <-- SCF
      1  -7.72761873E+003  3.09556831E+000   1.09310875E-001     130.53  <-- SCF
      2  -7.72762281E+003  3.09522787E+000   5.09902822E-004     132.38  <-- SCF
      3  -7.72760847E+003  3.19808488E+000  -1.79231240E-003     134.13  <-- SCF
      4  -7.72760447E+003  3.14476321E+000  -5.00685000E-004     135.93  <-- SCF
      5  -7.72760430E+003  3.15499556E+000  -2.08963040E-005     137.52  <-- SCF
      6  -7.72760430E+003  3.15460788E+000  -2.59777280E-008     138.91  <-- SCF
      7  -7.72760430E+003  3.15498433E+000  -8.64320118E-008     140.06  <-- SCF
      8  -7.72760430E+003  3.15500209E+000   8.63301172E-010     141.11  <-- SCF
------------------------------------------------------------------------ <-- SCF
 
Final energy, E             =  -7727.588676766     eV
Final free energy (E-TS)    =  -7727.604298979     eV
(energies not corrected for finite basis set)
 
NB est. 0K energy (E-0.5TS)      =  -7727.596487873     eV
 

 *********** Symmetrised Stress Tensor ***********
 *                                               *
 *          Cartesian components (GPa)           *
 * --------------------------------------------- *
 *             x             y             z     *
 *                                               *
 *  x     -0.855883      0.000000      0.000000  *
 *  y      0.000000     -0.855883      0.000000  *
 *  z      0.000000      0.000000     -0.855883  *
 *                                               *
 *  Pressure:    0.8559                          *
 *                                               *
 *************************************************
  
 +------------+-------------+-------------+-----------------+ <-- min LBFGS
 |    Step    |   lambda    |   F.delta'  |    enthalpy     | <-- min LBFGS
 +------------+-------------+-------------+-----------------+ <-- min LBFGS
 |  previous  |    0.000000 |    0.014478 |    -7727.647799 | <-- min LBFGS
 | trial step |    1.000000 |    0.038824 |    -7727.649780 | <-- min LBFGS
 |  line step |   -0.594665 |    0.055802 |    -7727.718587 | <-- min LBFGS
 |  quad step |    0.797983 |    0.033661 |    -7727.649235 | <-- min LBFGS
 +------------+-------------+-------------+-----------------+ <-- min LBFGS
  
 LBFGS: updated estimated bulk modulus =  84.90505 GPa
 LBFGS: finished iteration     2 with enthalpy= -7.72764923E+003 eV
  
 +-----------+-----------------+-----------------+------------+-----+ <-- LBFGS
 | Parameter |      value      |    tolerance    |    units   | OK? | <-- LBFGS
 +-----------+-----------------+-----------------+------------+-----+ <-- LBFGS
 |  dE/ion   |   1.795116E-004 |   2.000000E-005 |         eV | No  | <-- LBFGS
 |   Smax    |   8.558828E-001 |   1.000000E-001 |        GPa | No  | <-- LBFGS
 +-----------+-----------------+-----------------+------------+-----+ <-- LBFGS
  

================================================================================
 Starting LBFGS iteration          3 ...
================================================================================
  
 +------------+-------------+-------------+-----------------+ <-- min LBFGS
 |    Step    |   lambda    |   F.delta'  |    enthalpy     | <-- min LBFGS
 +------------+-------------+-------------+-----------------+ <-- min LBFGS
 |  previous  |    0.000000 |    0.033661 |    -7727.649235 | <-- min LBFGS
 +------------+-------------+-------------+-----------------+ <-- min LBFGS
  

--------------------------------------------------------------------------------
 LBFGS: starting iteration         3 with trial guess (lambda=  1.000000)
--------------------------------------------------------------------------------
 
+---------------- MEMORY AND SCRATCH DISK ESTIMATES PER PROCESS --------------+
|                                                     Memory          Disk    |
| Model and support data                              128.9 MB         0.0 MB |
| Electronic energy minimisation requirements          15.1 MB         0.0 MB |
| Geometry minimisation requirements                   18.8 MB         0.0 MB |
|                                               ----------------------------- |
| Approx. total storage required per process          162.8 MB         0.0 MB |
|                                                                             |
| Requirements will fluctuate during execution and may exceed these estimates |
+-----------------------------------------------------------------------------+
 

                           -------------------------------
                                      Unit Cell
                           -------------------------------
        Real Lattice(A)              Reciprocal Lattice(1/A)
     4.7783879    -0.0000000    -0.0000000        1.314917373   0.000000000   0.000000000
    -0.0000000     4.7783879    -0.0000000        0.000000000   1.314917373   0.000000000
    -0.0000000    -0.0000000     4.7783879        0.000000000   0.000000000   1.314917373

                       Lattice parameters(A)       Cell Angles
                    a =      4.778388          alpha =   90.000000
                    b =      4.778388          beta  =   90.000000
                    c =      4.778388          gamma =   90.000000

                Current cell volume =           109.104890 A**3

------------------------------------------------------------------------ <-- SCF
SCF loop      Energy           Fermi           Energy gain       Timer   <-- SCF
                               energy          per atom          (sec)   <-- SCF
------------------------------------------------------------------------ <-- SCF
Initial  -7.72621247E+003  0.00000000E+000                       143.23  <-- SCF
      1  -7.72735581E+003  2.92337485E+000   1.42917458E-001     144.70  <-- SCF
      2  -7.72736045E+003  2.92337264E+000   5.80292385E-004     146.53  <-- SCF
      3  -7.72733334E+003  3.04373178E+000  -3.38812740E-003     148.16  <-- SCF
      4  -7.72732769E+003  2.98028044E+000  -7.06237883E-004     149.93  <-- SCF
      5  -7.72732731E+003  2.99380362E+000  -4.79718507E-005     151.60  <-- SCF
      6  -7.72732731E+003  2.99363224E+000   3.26110132E-007     153.01  <-- SCF
      7  -7.72732731E+003  2.99399319E+000  -1.91365158E-007     154.20  <-- SCF
      8  -7.72732731E+003  2.99395787E+000  -1.63031478E-009     155.25  <-- SCF
      9  -7.72732731E+003  2.99396451E+000   4.39867898E-010     156.28  <-- SCF
------------------------------------------------------------------------ <-- SCF
 
Final energy, E             =  -7727.315805191     eV
Final free energy (E-TS)    =  -7727.327309745     eV
(energies not corrected for finite basis set)
 
NB est. 0K energy (E-0.5TS)      =  -7727.321557468     eV
 

 *********** Symmetrised Stress Tensor ***********
 *                                               *
 *          Cartesian components (GPa)           *
 * --------------------------------------------- *
 *             x             y             z     *
 *                                               *
 *  x     -0.536437      0.000000      0.000000  *
 *  y      0.000000     -0.536437      0.000000  *
 *  z      0.000000      0.000000     -0.536437  *
 *                                               *
 *  Pressure:    0.5364                          *
 *                                               *
 *************************************************
  
 +------------+-------------+-------------+-----------------+ <-- min LBFGS
 |    Step    |   lambda    |   F.delta'  |    enthalpy     | <-- min LBFGS
 +------------+-------------+-------------+-----------------+ <-- min LBFGS
 |  previous  |    0.000000 |    0.033661 |    -7727.649235 | <-- min LBFGS
 | trial step |    1.000000 |    0.021216 |    -7727.615692 | <-- min LBFGS
 +------------+-------------+-------------+-----------------+ <-- min LBFGS
  

--------------------------------------------------------------------------------
 LBFGS: improving iteration         3 with line minimization (lambda=  2.704867)
--------------------------------------------------------------------------------
 
+---------------- MEMORY AND SCRATCH DISK ESTIMATES PER PROCESS --------------+
|                                                     Memory          Disk    |
| Model and support data                              156.3 MB         0.0 MB |
| Electronic energy minimisation requirements          15.8 MB         0.0 MB |
| Geometry minimisation requirements                   19.6 MB         0.0 MB |
|                                               ----------------------------- |
| Approx. total storage required per process          191.7 MB         0.0 MB |
|                                                                             |
| Requirements will fluctuate during execution and may exceed these estimates |
+-----------------------------------------------------------------------------+
 

                           -------------------------------
                                      Unit Cell
                           -------------------------------
        Real Lattice(A)              Reciprocal Lattice(1/A)
     4.8012419     0.0000000     0.0000000        1.308658348  -0.000000000  -0.000000000
     0.0000000     4.8012419     0.0000000       -0.000000000   1.308658348  -0.000000000
     0.0000000     0.0000000     4.8012419       -0.000000000  -0.000000000   1.308658348

                       Lattice parameters(A)       Cell Angles
                    a =      4.801242          alpha =   90.000000
                    b =      4.801242          beta  =   90.000000
                    c =      4.801242          gamma =   90.000000

                Current cell volume =           110.677863 A**3

------------------------------------------------------------------------ <-- SCF
SCF loop      Energy           Fermi           Energy gain       Timer   <-- SCF
                               energy          per atom          (sec)   <-- SCF
------------------------------------------------------------------------ <-- SCF
Initial  -7.72491626E+003  0.00000000E+000                       161.75  <-- SCF
      1  -7.72754871E+003  2.81788124E+000   3.29057090E-001     163.22  <-- SCF
      2  -7.72756798E+003  2.81788210E+000   2.40851870E-003     165.13  <-- SCF
      3  -7.72748729E+003  3.06201769E+000  -1.00858662E-002     166.80  <-- SCF
      4  -7.72746347E+003  2.92565036E+000  -2.97780916E-003     168.59  <-- SCF
      5  -7.72746256E+003  2.94914508E+000  -1.14200465E-004     170.37  <-- SCF
      6  -7.72746256E+003  2.94763236E+000   2.86265835E-007     171.93  <-- SCF
      7  -7.72746255E+003  2.94837807E+000  -6.32182397E-007     173.31  <-- SCF
      8  -7.72746255E+003  2.94818877E+000  -4.77551526E-009     174.40  <-- SCF
      9  -7.72746255E+003  2.94820992E+000   4.40834641E-010     175.49  <-- SCF
------------------------------------------------------------------------ <-- SCF
 
Final energy, E             =  -7727.446825643     eV
Final free energy (E-TS)    =  -7727.462554768     eV
(energies not corrected for finite basis set)
 
NB est. 0K energy (E-0.5TS)      =  -7727.454690206     eV
 

 *********** Symmetrised Stress Tensor ***********
 *                                               *
 *          Cartesian components (GPa)           *
 * --------------------------------------------- *
 *             x             y             z     *
 *                                               *
 *  x      0.675304      0.000000      0.000000  *
 *  y      0.000000      0.675304      0.000000  *
 *  z      0.000000      0.000000      0.675304  *
 *                                               *
 *  Pressure:   -0.6753                          *
 *                                               *
 *************************************************
  
 +------------+-------------+-------------+-----------------+ <-- min LBFGS
 |    Step    |   lambda    |   F.delta'  |    enthalpy     | <-- min LBFGS
 +------------+-------------+-------------+-----------------+ <-- min LBFGS
 |  previous  |    0.000000 |    0.033661 |    -7727.649235 | <-- min LBFGS
 | trial step |    1.000000 |    0.021216 |    -7727.615692 | <-- min LBFGS
 |  line step |    2.704867 |   -0.026965 |    -7727.402628 | <-- min LBFGS
 +------------+-------------+-------------+-----------------+ <-- min LBFGS
  
 LBFGS: reverting to earlier configuration

                           -------------------------------
                                      Unit Cell
                           -------------------------------
        Real Lattice(A)              Reciprocal Lattice(1/A)
     4.7783879    -0.0000000    -0.0000000        1.314917373   0.000000000   0.000000000
    -0.0000000     4.7783879    -0.0000000        0.000000000   1.314917373   0.000000000
    -0.0000000    -0.0000000     4.7783879        0.000000000   0.000000000   1.314917373

                       Lattice parameters(A)       Cell Angles
                    a =      4.778388          alpha =   90.000000
                    b =      4.778388          beta  =   90.000000
                    c =      4.778388          gamma =   90.000000

                Current cell volume =           109.104890 A**3

 LBFGS: finished iteration     3 with enthalpy= -7.72761569E+003 eV
  
 +-----------+-----------------+-----------------+------------+-----+ <-- LBFGS
 | Parameter |      value      |    tolerance    |    units   | OK? | <-- LBFGS
 +-----------+-----------------+-----------------+------------+-----+ <-- LBFGS
 |  dE/ion   |   4.192789E-003 |   2.000000E-005 |         eV | No  | <-- LBFGS
 |   Smax    |   5.364371E-001 |   1.000000E-001 |        GPa | No  | <-- LBFGS
 +-----------+-----------------+-----------------+------------+-----+ <-- LBFGS
  

================================================================================
 Starting LBFGS iteration          4 ...
================================================================================
  
 +------------+-------------+-------------+-----------------+ <-- min LBFGS
 |    Step    |   lambda    |   F.delta'  |    enthalpy     | <-- min LBFGS
 +------------+-------------+-------------+-----------------+ <-- min LBFGS
 |  previous  |    0.000000 |    0.021216 |    -7727.615692 | <-- min LBFGS
 +------------+-------------+-------------+-----------------+ <-- min LBFGS
  

--------------------------------------------------------------------------------
 LBFGS: starting iteration         4 with trial guess (lambda=  1.000000)
--------------------------------------------------------------------------------

                           -------------------------------
                                      Unit Cell
                           -------------------------------
        Real Lattice(A)              Reciprocal Lattice(1/A)
     4.8012419    -0.0000000    -0.0000000        1.308658348   0.000000000   0.000000000
    -0.0000000     4.8012419    -0.0000000        0.000000000   1.308658348   0.000000000
    -0.0000000    -0.0000000     4.8012419        0.000000000   0.000000000   1.308658348

                       Lattice parameters(A)       Cell Angles
                    a =      4.801242          alpha =   90.000000
                    b =      4.801242          beta  =   90.000000
                    c =      4.801242          gamma =   90.000000

                Current cell volume =           110.677863 A**3

------------------------------------------------------------------------ <-- SCF
SCF loop      Energy           Fermi           Energy gain       Timer   <-- SCF
                               energy          per atom          (sec)   <-- SCF
------------------------------------------------------------------------ <-- SCF
Initial  -7.72491626E+003  0.00000000E+000                       178.44  <-- SCF
      1  -7.72754871E+003  2.81788124E+000   3.29057090E-001     179.89  <-- SCF
      2  -7.72756798E+003  2.81788210E+000   2.40851870E-003     181.79  <-- SCF
      3  -7.72748729E+003  3.06201769E+000  -1.00858662E-002     183.50  <-- SCF
      4  -7.72746347E+003  2.92565036E+000  -2.97780916E-003     185.30  <-- SCF
      5  -7.72746256E+003  2.94914508E+000  -1.14200465E-004     187.06  <-- SCF
      6  -7.72746256E+003  2.94763236E+000   2.86265835E-007     188.56  <-- SCF
      7  -7.72746255E+003  2.94837807E+000  -6.32182397E-007     189.98  <-- SCF
      8  -7.72746255E+003  2.94818877E+000  -4.77551526E-009     191.11  <-- SCF
      9  -7.72746255E+003  2.94820992E+000   4.40834641E-010     192.23  <-- SCF
------------------------------------------------------------------------ <-- SCF
 
Final energy, E             =  -7727.446825643     eV
Final free energy (E-TS)    =  -7727.462554768     eV
(energies not corrected for finite basis set)
 
NB est. 0K energy (E-0.5TS)      =  -7727.454690206     eV
 

 *********** Symmetrised Stress Tensor ***********
 *                                               *
 *          Cartesian components (GPa)           *
 * --------------------------------------------- *
 *             x             y             z     *
 *                                               *
 *  x      0.675304      0.000000      0.000000  *
 *  y      0.000000      0.675304      0.000000  *
 *  z      0.000000      0.000000      0.675304  *
 *                                               *
 *  Pressure:   -0.6753                          *
 *                                               *
 *************************************************
  
 +------------+-------------+-------------+-----------------+ <-- min LBFGS
 |    Step    |   lambda    |   F.delta'  |    enthalpy     | <-- min LBFGS
 +------------+-------------+-------------+-----------------+ <-- min LBFGS
 |  previous  |    0.000000 |    0.021216 |    -7727.615692 | <-- min LBFGS
 | trial step |    1.000000 |   -0.026965 |    -7727.402628 | <-- min LBFGS
 +------------+-------------+-------------+-----------------+ <-- min LBFGS
  

--------------------------------------------------------------------------------
 LBFGS: improving iteration         4 with line minimization (lambda=  0.440346)
--------------------------------------------------------------------------------

                           -------------------------------
                                      Unit Cell
                           -------------------------------
        Real Lattice(A)              Reciprocal Lattice(1/A)
     4.7884516    -0.0000000    -0.0000000        1.312153873   0.000000000   0.000000000
    -0.0000000     4.7884516    -0.0000000        0.000000000   1.312153873   0.000000000
    -0.0000000    -0.0000000     4.7884516        0.000000000   0.000000000   1.312153873

                       Lattice parameters(A)       Cell Angles
                    a =      4.788452          alpha =   90.000000
                    b =      4.788452          beta  =   90.000000
                    c =      4.788452          gamma =   90.000000

                Current cell volume =           109.795693 A**3

------------------------------------------------------------------------ <-- SCF
SCF loop      Energy           Fermi           Energy gain       Timer   <-- SCF
                               energy          per atom          (sec)   <-- SCF
------------------------------------------------------------------------ <-- SCF
Initial  -7.72763639E+003  0.00000000E+000                       198.05  <-- SCF
      1  -7.72774227E+003  3.03340897E+000   1.32348490E-002     199.55  <-- SCF
      2  -7.72774286E+003  3.03340766E+000   7.37976139E-005     201.41  <-- SCF
      3  -7.72772242E+003  2.94777292E+000  -2.55580492E-003     203.17  <-- SCF
      4  -7.72772000E+003  2.99329169E+000  -3.02039807E-004     204.90  <-- SCF
      5  -7.72771967E+003  2.98178397E+000  -4.11517121E-005     206.57  <-- SCF
      6  -7.72771968E+003  2.98205035E+000   4.73546891E-007     208.04  <-- SCF
      7  -7.72771967E+003  2.98182135E+000  -5.90813160E-008     209.15  <-- SCF
      8  -7.72771967E+003  2.98186476E+000   1.72196198E-009     210.29  <-- SCF
------------------------------------------------------------------------ <-- SCF
 
Final energy, E             =  -7727.705632169     eV
Final free energy (E-TS)    =  -7727.719674851     eV
(energies not corrected for finite basis set)
 
NB est. 0K energy (E-0.5TS)      =  -7727.712653510     eV
 

 *********** Symmetrised Stress Tensor ***********
 *                                               *
 *          Cartesian components (GPa)           *
 * --------------------------------------------- *
 *             x             y             z     *
 *                                               *
 *  x      0.548584      0.000000      0.000000  *
 *  y      0.000000      0.548584      0.000000  *
 *  z      0.000000      0.000000      0.548584  *
 *                                               *
 *  Pressure:   -0.5486                          *
 *                                               *
 *************************************************
  
 +------------+-------------+-------------+-----------------+ <-- min LBFGS
 |    Step    |   lambda    |   F.delta'  |    enthalpy     | <-- min LBFGS
 +------------+-------------+-------------+-----------------+ <-- min LBFGS
 |  previous  |    0.000000 |    0.021216 |    -7727.615692 | <-- min LBFGS
 | trial step |    1.000000 |   -0.026965 |    -7727.402628 | <-- min LBFGS
 |  line step |    0.440346 |   -0.021788 |    -7727.473563 | <-- min LBFGS
 +------------+-------------+-------------+-----------------+ <-- min LBFGS
  

--------------------------------------------------------------------------------
 LBFGS: improving iteration         4 with quad minimization (lambda=  0.032748)
--------------------------------------------------------------------------------

                           -------------------------------
                                      Unit Cell
                           -------------------------------
        Real Lattice(A)              Reciprocal Lattice(1/A)
     4.7791363    -0.0000000    -0.0000000        1.314711457   0.000000000   0.000000000
    -0.0000000     4.7791363    -0.0000000        0.000000000   1.314711457   0.000000000
    -0.0000000    -0.0000000     4.7791363        0.000000000   0.000000000   1.314711457

                       Lattice parameters(A)       Cell Angles
                    a =      4.779136          alpha =   90.000000
                    b =      4.779136          beta  =   90.000000
                    c =      4.779136          gamma =   90.000000

                Current cell volume =           109.156163 A**3

------------------------------------------------------------------------ <-- SCF
SCF loop      Energy           Fermi           Energy gain       Timer   <-- SCF
                               energy          per atom          (sec)   <-- SCF
------------------------------------------------------------------------ <-- SCF
Initial  -7.72716768E+003  0.00000000E+000                       212.80  <-- SCF
      1  -7.72726669E+003  3.03465527E+000   1.23766962E-002     214.30  <-- SCF
      2  -7.72726722E+003  3.03465286E+000   6.58420376E-005     216.10  <-- SCF
      3  -7.72725556E+003  2.95988349E+000  -1.45764810E-003     217.73  <-- SCF
      4  -7.72725321E+003  2.99780348E+000  -2.93374180E-004     219.44  <-- SCF
      5  -7.72725306E+003  2.99025386E+000  -1.86332868E-005     220.95  <-- SCF
      6  -7.72725306E+003  2.99025630E+000   1.83865168E-007     222.39  <-- SCF
      7  -7.72725306E+003  2.99018152E+000  -9.62682314E-009     223.42  <-- SCF
      8  -7.72725306E+003  2.99023985E+000  -5.11986899E-010     224.47  <-- SCF
------------------------------------------------------------------------ <-- SCF
 
Final energy, E             =  -7727.241441012     eV
Final free energy (E-TS)    =  -7727.253063051     eV
(energies not corrected for finite basis set)
 
NB est. 0K energy (E-0.5TS)      =  -7727.247252032     eV
 

 *********** Symmetrised Stress Tensor ***********
 *                                               *
 *          Cartesian components (GPa)           *
 * --------------------------------------------- *
 *             x             y             z     *
 *                                               *
 *  x     -0.604809     -0.000000     -0.000000  *
 *  y     -0.000000     -0.604809     -0.000000  *
 *  z     -0.000000     -0.000000     -0.604809  *
 *                                               *
 *  Pressure:    0.6048                          *
 *                                               *
 *************************************************
  
 +------------+-------------+-------------+-----------------+ <-- min LBFGS
 |    Step    |   lambda    |   F.delta'  |    enthalpy     | <-- min LBFGS
 +------------+-------------+-------------+-----------------+ <-- min LBFGS
 |  previous  |    0.000000 |    0.021216 |    -7727.615692 | <-- min LBFGS
 | trial step |    1.000000 |   -0.026965 |    -7727.402628 | <-- min LBFGS
 |  line step |    0.440346 |   -0.021788 |    -7727.473563 | <-- min LBFGS
 |  quad step |    0.032748 |    0.023928 |    -7727.615875 | <-- min LBFGS
 +------------+-------------+-------------+-----------------+ <-- min LBFGS
  
 LBFGS: reverting to earlier configuration

                           -------------------------------
                                      Unit Cell
                           -------------------------------
        Real Lattice(A)              Reciprocal Lattice(1/A)
     4.7884516    -0.0000000    -0.0000000        1.312153873   0.000000000   0.000000000
    -0.0000000     4.7884516    -0.0000000        0.000000000   1.312153873   0.000000000
    -0.0000000    -0.0000000     4.7884516        0.000000000   0.000000000   1.312153873

                       Lattice parameters(A)       Cell Angles
                    a =      4.788452          alpha =   90.000000
                    b =      4.788452          beta  =   90.000000
                    c =      4.788452          gamma =   90.000000

                Current cell volume =           109.795693 A**3

[...]
 +------------+-------------+-------------+-----------------+ <-- min LBFGS
 |  previous  |    0.000000 |    0.020064 |    -7727.518574 | <-- min LBFGS
 +------------+-------------+-------------+-----------------+ <-- min LBFGS
  

--------------------------------------------------------------------------------
 LBFGS: starting iteration        30 with trial guess (lambda=  1.000000)
--------------------------------------------------------------------------------

                           -------------------------------
                                      Unit Cell
                           -------------------------------
        Real Lattice(A)              Reciprocal Lattice(1/A)
     4.7787688    -0.0000000    -0.0000000        1.314812576   0.000000000   0.000000000
    -0.0000000     4.7787688    -0.0000000        0.000000000   1.314812576   0.000000000
    -0.0000000    -0.0000000     4.7787688        0.000000000   0.000000000   1.314812576

                       Lattice parameters(A)       Cell Angles
                    a =      4.778769          alpha =   90.000000
                    b =      4.778769          beta  =   90.000000
                    c =      4.778769          gamma =   90.000000

                Current cell volume =           109.130980 A**3

------------------------------------------------------------------------ <-- SCF
SCF loop      Energy           Fermi           Energy gain       Timer   <-- SCF
                               energy          per atom          (sec)   <-- SCF
------------------------------------------------------------------------ <-- SCF
Initial  -7.72725919E+003  0.00000000E+000                      1112.67  <-- SCF
      1  -7.72728992E+003  3.00573682E+000   3.84065926E-003    1114.22  <-- SCF
      2  -7.72729004E+003  3.00573633E+000   1.58210935E-005    1115.72  <-- SCF
      3  -7.72728985E+003  2.98115120E+000  -2.42890051E-005    1117.38  <-- SCF
      4  -7.72728952E+003  2.99229490E+000  -4.13564979E-005    1118.83  <-- SCF
      5  -7.72728952E+003  2.99208987E+000   3.48234231E-007    1120.08  <-- SCF
      6  -7.72728952E+003  2.99212251E+000  -4.29929784E-009    1121.13  <-- SCF
      7  -7.72728952E+003  2.99206542E+000  -2.22718168E-009    1122.18  <-- SCF
------------------------------------------------------------------------ <-- SCF
 
Final energy, E             =  -7727.277958484     eV
Final free energy (E-TS)    =  -7727.289522116     eV
(energies not corrected for finite basis set)
 
NB est. 0K energy (E-0.5TS)      =  -7727.283740300     eV
 

 *********** Symmetrised Stress Tensor ***********
 *                                               *
 *          Cartesian components (GPa)           *
 * --------------------------------------------- *
 *             x             y             z     *
 *                                               *
 *  x     -0.569162     -0.000000     -0.000000  *
 *  y     -0.000000     -0.569162     -0.000000  *
 *  z     -0.000000     -0.000000     -0.569162  *
 *                                               *
 *  Pressure:    0.5692                          *
 *                                               *
 *************************************************
  
 +------------+-------------+-------------+-----------------+ <-- min LBFGS
 |    Step    |   lambda    |   F.delta'  |    enthalpy     | <-- min LBFGS
 +------------+-------------+-------------+-----------------+ <-- min LBFGS
 |  previous  |    0.000000 |    0.020064 |    -7727.518574 | <-- min LBFGS
 | trial step |    1.000000 |   -0.022514 |    -7727.615783 | <-- min LBFGS
 +------------+-------------+-------------+-----------------+ <-- min LBFGS
  

--------------------------------------------------------------------------------
 LBFGS: improving iteration        30 with line minimization (lambda=  0.471227)
--------------------------------------------------------------------------------

                           -------------------------------
                                      Unit Cell
                           -------------------------------
        Real Lattice(A)              Reciprocal Lattice(1/A)
     4.7790838    -0.0000000    -0.0000000        1.314725905   0.000000000   0.000000000
    -0.0000000     4.7790838    -0.0000000        0.000000000   1.314725905   0.000000000
    -0.0000000    -0.0000000     4.7790838        0.000000000   0.000000000   1.314725905

                       Lattice parameters(A)       Cell Angles
                    a =      4.779084          alpha =   90.000000
                    b =      4.779084          beta  =   90.000000
                    c =      4.779084          gamma =   90.000000

                Current cell volume =           109.152565 A**3

------------------------------------------------------------------------ <-- SCF
SCF loop      Energy           Fermi           Energy gain       Timer   <-- SCF
                               energy          per atom          (sec)   <-- SCF
------------------------------------------------------------------------ <-- SCF
Initial  -7.72724668E+003  0.00000000E+000                      1124.19  <-- SCF
      1  -7.72725828E+003  2.98977645E+000   1.45042161E-003    1125.71  <-- SCF
      2  -7.72725829E+003  2.98977645E+000   2.56206133E-008    1126.83  <-- SCF
      3  -7.72725827E+003  2.99087199E+000  -1.55604168E-006    1128.45  <-- SCF
      4  -7.72725827E+003  2.99030461E+000  -3.68630567E-008    1129.49  <-- SCF
      5  -7.72725827E+003  2.99048543E+000  -1.04601553E-008    1130.53  <-- SCF
------------------------------------------------------------------------ <-- SCF
 
Final energy, E             =  -7727.246658426     eV
Final free energy (E-TS)    =  -7727.258272356     eV
(energies not corrected for finite basis set)
 
NB est. 0K energy (E-0.5TS)      =  -7727.252465391     eV
 

 *********** Symmetrised Stress Tensor ***********
 *                                               *
 *          Cartesian components (GPa)           *
 * --------------------------------------------- *
 *             x             y             z     *
 *                                               *
 *  x     -0.603185     -0.000000     -0.000000  *
 *  y     -0.000000     -0.603185     -0.000000  *
 *  z     -0.000000     -0.000000     -0.603185  *
 *                                               *
 *  Pressure:    0.6032                          *
 *                                               *
 *************************************************
  
 +------------+-------------+-------------+-----------------+ <-- min LBFGS
 |    Step    |   lambda    |   F.delta'  |    enthalpy     | <-- min LBFGS
 +------------+-------------+-------------+-----------------+ <-- min LBFGS
 |  previous  |    0.000000 |    0.020064 |    -7727.518574 | <-- min LBFGS
 | trial step |    1.000000 |   -0.022514 |    -7727.615783 | <-- min LBFGS
 |  line step |    0.471227 |   -0.023863 |    -7727.615861 | <-- min LBFGS
 +------------+-------------+-------------+-----------------+ <-- min LBFGS
  

--------------------------------------------------------------------------------
 LBFGS: improving iteration        30 with quad minimization (lambda= -0.055162)
--------------------------------------------------------------------------------

                           -------------------------------
                                      Unit Cell
                           -------------------------------
        Real Lattice(A)              Reciprocal Lattice(1/A)
     4.7793974    -0.0000000    -0.0000000        1.314639637   0.000000000   0.000000000
    -0.0000000     4.7793974    -0.0000000        0.000000000   1.314639637   0.000000000
    -0.0000000    -0.0000000     4.7793974        0.000000000   0.000000000   1.314639637

                       Lattice parameters(A)       Cell Angles
                    a =      4.779397          alpha =   90.000000
                    b =      4.779397          beta  =   90.000000
                    c =      4.779397          gamma =   90.000000

                Current cell volume =           109.174054 A**3

------------------------------------------------------------------------ <-- SCF
SCF loop      Energy           Fermi           Energy gain       Timer   <-- SCF
                               energy          per atom          (sec)   <-- SCF
------------------------------------------------------------------------ <-- SCF
Initial  -7.72721553E+003  0.00000000E+000                      1132.62  <-- SCF
      1  -7.72800595E+003  2.98398588E+000   9.88021561E-002    1134.08  <-- SCF
      2  -7.72800925E+003  2.98398801E+000   4.12693815E-004    1135.37  <-- SCF
      3  -7.72800865E+003  3.03539679E+000  -7.51404865E-005    1136.85  <-- SCF
      4  -7.72800712E+003  3.01034143E+000  -1.90789866E-004    1138.42  <-- SCF
      5  -7.72800715E+003  3.01077283E+000   3.20291521E-006    1139.93  <-- SCF
      6  -7.72800714E+003  3.01050990E+000  -1.54624104E-007    1141.11  <-- SCF
      7  -7.72800714E+003  3.01060154E+000  -2.66994981E-009    1142.16  <-- SCF
      8  -7.72800714E+003  3.01063811E+000  -6.43850594E-010    1143.21  <-- SCF
------------------------------------------------------------------------ <-- SCF
 
Final energy, E             =  -7727.994808101     eV
Final free energy (E-TS)    =  -7728.007144419     eV
(energies not corrected for finite basis set)
 
NB est. 0K energy (E-0.5TS)      =  -7728.000976260     eV
 

 *********** Symmetrised Stress Tensor ***********
 *                                               *
 *          Cartesian components (GPa)           *
 * --------------------------------------------- *
 *             x             y             z     *
 *                                               *
 *  x      0.504171      0.000000      0.000000  *
 *  y      0.000000      0.504171      0.000000  *
 *  z      0.000000      0.000000      0.504171  *
 *                                               *
 *  Pressure:   -0.5042                          *
 *                                               *
 *************************************************
  
 +------------+-------------+-------------+-----------------+ <-- min LBFGS
 |    Step    |   lambda    |   F.delta'  |    enthalpy     | <-- min LBFGS
 +------------+-------------+-------------+-----------------+ <-- min LBFGS
 |  previous  |    0.000000 |    0.020064 |    -7727.518574 | <-- min LBFGS
 | trial step |    1.000000 |   -0.022514 |    -7727.615783 | <-- min LBFGS
 |  line step |    0.471227 |   -0.023863 |    -7727.615861 | <-- min LBFGS
 |  quad step |   -0.055162 |    0.019949 |    -7727.518567 | <-- min LBFGS
 +------------+-------------+-------------+-----------------+ <-- min LBFGS
  
 LBFGS: finished iteration    30 with enthalpy= -7.72751857E+003 eV
  
 +-----------+-----------------+-----------------+------------+-----+ <-- LBFGS
 | Parameter |      value      |    tolerance    |    units   | OK? | <-- LBFGS
 +-----------+-----------------+-----------------+------------+-----+ <-- LBFGS
 |  dE/ion   |   8.862025E-007 |   2.000000E-005 |         eV | Yes | <-- LBFGS
 |   Smax    |   5.041713E-001 |   1.000000E-001 |        GPa | No  | <-- LBFGS
 +-----------+-----------------+-----------------+------------+-----+ <-- LBFGS
  
 LBFGS: WARNING - Geometry optimization failed to converge after         30 steps

================================================================================
 LBFGS: Final Configuration:
================================================================================

                           -------------------------------
                                      Unit Cell
                           -------------------------------
        Real Lattice(A)              Reciprocal Lattice(1/A)
     4.7793974    -0.0000000    -0.0000000        1.314639637   0.000000000   0.000000000
    -0.0000000     4.7793974    -0.0000000        0.000000000   1.314639637   0.000000000
    -0.0000000    -0.0000000     4.7793974        0.000000000   0.000000000   1.314639637

                       Lattice parameters(A)       Cell Angles
                    a =      4.779397          alpha =   90.000000
                    b =      4.779397          beta  =   90.000000
                    c =      4.779397          gamma =   90.000000

                Current cell volume =           109.174054 A**3

 LBFGS: Final Enthalpy     = -7.72751857E+003 eV
 LBFGS: Final bulk modulus =    1128.45868 GPa
  
  **********************************************************
  *** There were at least     1 warnings during this run ***
  *** => please check the whole of this file carefully!  ***
  **********************************************************

 ******************************** Symmetrised Forces ********************************
 *                                                                                  *
 *                           Cartesian components (eV/A)                            *
 * -------------------------------------------------------------------------------- *
 *                         x                    y                    z              *
 *                                                                                  *
 * O               1      0.00000              0.00000              0.00000         *
 * O               2      0.00000              0.00000              0.00000         *
 * O               3      0.00000              0.00000              0.00000         *
 * O               4      0.00000              0.00000              0.00000         *
 * Mg              1      0.00000              0.00000              0.00000         *
 * Mg              2      0.00000              0.00000              0.00000         *
 * Mg              3      0.00000              0.00000              0.00000         *
 * Ca              1      0.00000              0.00000              0.00000         *
 *                                                                                  *
 ************************************************************************************

 *********** Symmetrised Stress Tensor ***********
 *                                               *
 *          Cartesian components (GPa)           *
 * --------------------------------------------- *
 *             x             y             z     *
 *                                               *
 *  x      0.504171      0.000000      0.000000  *
 *  y      0.000000      0.504171      0.000000  *
 *  z      0.000000      0.000000      0.504171  *
 *                                               *
 *  Pressure:   -0.5042                          *
 *                                               *
 *************************************************

 Pseudo atomic calculation performed for O 2s2 2p4

 Converged in 27 iterations to a total energy of -404.4576 eV


 Pseudo atomic calculation performed for Mg 2s2 2p6 3s2

 Converged in 19 iterations to a total energy of -1684.3836 eV


 Pseudo atomic calculation performed for Ca 3s2 3p6 4s2

 Converged in 24 iterations to a total energy of -1001.5497 eV

Charge spilling parameter for spin component 1 = 0.23%

            Orbital Populations       
     Ion    Atom   Orbital             Charge
  -------------------------------------------
      O     1      S                    1.942
      O     1      Px                   1.687
      O     1      Py                   1.687
      O     1      Pz                   1.629
      O     2      S                    1.936
      O     2      Px                   1.720
      O     2      Py                   1.657
      O     2      Pz                   1.601
      O     3      S                    1.936
      O     3      Px                   1.657
      O     3      Py                   1.720
      O     3      Pz                   1.601
      O     4      S                    1.934
      O     4      Px                   1.664
      O     4      Py                   1.664
      O     4      Pz                   1.793
     Mg     1      S                    2.000
     Mg     1      Px                   2.000
     Mg     1      Py                   2.000
     Mg     1      Pz                   2.000
     Mg     1      S                    0.483
     Mg     1      Px                   0.167
     Mg     1      Py                   0.201
     Mg     1      Pz                   0.262
     Mg     2      S                    2.000
     Mg     2      Px                   2.000
     Mg     2      Py                   2.000
     Mg     2      Pz                   2.000
     Mg     2      S                    0.483
     Mg     2      Px                   0.201
     Mg     2      Py                   0.167
     Mg     2      Pz                   0.262
     Mg     3      S                    2.000
     Mg     3      Px                   2.000
     Mg     3      Py                   2.000
     Mg     3      Pz                   2.000
     Mg     3      S                    0.464
     Mg     3      Px                   0.174
     Mg     3      Py                   0.174
     Mg     3      Pz                   0.251
     Ca     1      S                    2.014
     Ca     1      Px                   1.997
     Ca     1      Py                   1.997
     Ca     1      Pz                   1.998
     Ca     1      S                    0.164
     Ca     1      Dzz                  0.166
     Ca     1      Dzy                  0.101
     Ca     1      Dzx                  0.101
     Ca     1      Dxx-yy               0.238
     Ca     1      Dxy                  0.108
  -------------------------------------------
                           Total:      64.000
  -------------------------------------------

     Atomic Populations (Mulliken)
     -----------------------------
Species          Ion     s      p      d      f     Total  Charge (e)
=====================================================================
  O               1     1.94   5.00   0.00   0.00   6.94    -0.94
  O               2     1.94   5.03   0.00   0.00   6.96    -0.96
  O               3     1.94   5.03   0.00   0.00   6.96    -0.96
  O               4     1.94   5.03   0.00   0.00   6.96    -0.96
  Mg              1     2.48   6.62   0.00   0.00   9.10     0.90
  Mg              2     2.48   6.62   0.00   0.00   9.10     0.90
  Mg              3     2.48   6.62   0.00   0.00   9.10     0.90
  Ca              1     2.18   5.99   0.71   0.00   8.88     1.12
=====================================================================

                 Bond                   Population      Length (A)
======================================================================
               O 4 -- Ca 1                   0.26        2.38970
               O 4 -- Mg 2                   0.50        2.38970
               O 4 -- Mg 1                   0.50        2.38970
               O 3 -- Ca 1                   0.26        2.38970
               O 3 -- Mg 3                   0.50        2.38970
               O 3 -- Mg 1                   0.50        2.38970
               O 2 -- Ca 1                   0.26        2.38970
               O 2 -- Mg 3                   0.50        2.38970
               O 2 -- Mg 2                   0.50        2.38970
               O 1 -- Mg 3                   0.47        2.38970
               O 1 -- Mg 2                   0.47        2.38970
               O 1 -- Mg 1                   0.47        2.38970
======================================================================


Writing analysis data to MgO.castep_bin

Writing model to MgO.check
 
 A BibTeX formatted list of references used in this run has been written to 
 MgO.bib
 
Initialisation time =     15.64 s
Calculation time    =   1130.93 s
Finalisation time   =      0.10 s
Total time          =   1146.67 s
Peak Memory Use     = 1892528 kB
