 +-------------------------------------------------+
 |                                                 |
 |      CCC   AA    SSS  TTTTT  EEEEE  PPPP        |
 |     C     A  A  S       T    E      P   P       |
 |     C     AAAA   SS     T    EEE    PPPP        |
 |     C     A  A     S    T    E      P           |
 |      CCC  A  A  SSS     T    EEEEE  P           |
 |                                                 |
 +-------------------------------------------------+
 |                                                 |
 | Welcome to Academic Release CASTEP version 18.1 |          
 | Ab Initio Total Energy Program                  |
 |                                                 |
 | Authors:                                        |
 | M. Segall, M. Probert, C. Pickard, P. Hasnip,   |
 | S. Clark, K. Refson, J. R. Yates, M. Payne      |
 |                                                 |
 | Contributors:                                   |
 | P. Lindan, P. Haynes, J. White, V. Milman,      |
 | N. Govind, M. Gibson, P. Tulip, V. Cocula,      |
 | B. Montanari, D. Quigley, M. Glover,            |
 | L. Bernasconi, A. Perlov, M. Plummer,           |
 | E. McNellis, J. Meyer, J. Gale, D. Jochym       |
 | J. Aarons, B. Walker, R. Gillen, D. Jones       |
 | T. Green, I. J. Bush, C. J. Armstrong,          |
 | E. J. Higgins, E. L. Brown, M. S. McFly,        |
 | J. Wilkins, B-C. Shih, P. J. P. Byrne           |
 |                                                 |
 | Copyright (c) 2000 - 2017                       |
 |                                                 |
 |     Distributed under the terms of an           |
 |     Agreement between the United Kingdom        |
 |     Car-Parrinello (UKCP) Consortium,           |
 |     Daresbury Laboratory and Accelrys, Inc.     |
 |                                                 |
 | Please cite                                     |
 |                                                 |
 |     "First principles methods using CASTEP"     |
 |                                                 |
 |         Zeitschrift fuer Kristallographie       |
 |           220(5-6) pp. 567-570 (2005)           |
 |                                                 |
 | S. J. Clark, M. D. Segall, C. J. Pickard,       |
 | P. J. Hasnip, M. J. Probert, K. Refson,         |
 | M. C. Payne                                     |
 |                                                 |
 |       in all publications arising from          |
 |              your use of CASTEP                 |
 |                                                 |
 +-------------------------------------------------+


 Compiled for linux_x86_64_gfortran7.0 on Fri, 02 Nov 2018 10:15:56 +0000
 from code version d7158031f363+  Mon, 11 Dec 2017 11:00:52 +0000
 Compiler: GNU Fortran 7.3.0; Optimisation: fast
 MATHLIBS: generic (LAPACK version 3.7.1)
 FFT Lib : fftw3 version fftw-3.3.7-sse2-avx
 Fundamental constants values: CODATA 2014

 Run started: Fri, 16 Oct 2020 11:28:56 +0100

 Atomic calculation performed for O: 1s2 2s2 2p4

 Converged in 60 iterations to an ae energy of -2027.926 eV

   ============================================================                
   | Pseudopotential Report - Date of generation 16-10-2020   |                
   ------------------------------------------------------------                
   | Element: O Ionic charge:  6.00 Level of theory: LDA      |                
   | Atomic Solver: Koelling-Harmon                           |                
   |                                                          |                
   |               Reference Electronic Structure             |                
   |         Orbital         Occupation         Energy        |                
   |            2s              2.000           -0.873        |                
   |            2p              4.000           -0.338        |                
   |                                                          |                
   |                 Pseudopotential Definition               |                
   |        Beta     l      e      Rc     scheme   norm       |                
   |          1      0   -0.873   1.100     qc      0         |                
   |          2      0    0.250   1.100     qc      0         |                
   |          3      1   -0.338   1.100     qc      0         |                
   |          4      1    0.250   1.100     qc      0         |                
   |         loc     2    0.000   1.100     pn      0         |                
   |                                                          |                
   | Augmentation charge Rinner = 0.769                       |                
   | Partial core correction Rc = 0.769                       |                
   ------------------------------------------------------------                
   | "2|1.1|17|20|23|20:21(qc=8)"                             |                
   ------------------------------------------------------------                
   |      Author: Chris J. Pickard, Cambridge University      |                
   ============================================================                

 Atomic calculation performed for Mg: 1s2 2s2 2p6 3s2

 Converged in 47 iterations to an ae energy of -5427.408 eV

   ============================================================                
   | Pseudopotential Report - Date of generation 16-10-2020   |                
   ------------------------------------------------------------                
   | Element: Mg Ionic charge: 10.00 Level of theory: LDA     |                
   | Atomic Solver: Koelling-Harmon                           |                
   |                                                          |                
   |               Reference Electronic Structure             |                
   |         Orbital         Occupation         Energy        |                
   |            2s              2.000           -2.914        |                
   |            2p              6.000           -1.717        |                
   |            3s              2.000           -0.176        |                
   |                                                          |                
   |                 Pseudopotential Definition               |                
   |        Beta     l      e      Rc     scheme   norm       |                
   |          1      0   -2.914   1.804     qc      0         |                
   |          2      0   -0.176   1.804     qc      0         |                
   |          3      0    0.250   1.804     qc      0         |                
   |          4      1   -1.717   1.804     qc      0         |                
   |          5      1    0.250   1.804     qc      0         |                
   |          6      2    0.000   1.804     qc      0         |                
   |          7      2    0.250   1.804     qc      0         |                
   |         loc     3    0.000   1.804     pn      0         |                
   |                                                          |                
   | Augmentation charge Rinner = 1.261                       |                
   | Partial core correction Rc = 1.261                       |                
   ------------------------------------------------------------                
   | "3|1.8|7|8|9|20U:30:21:32"                               |                
   ------------------------------------------------------------                
   |      Author: Chris J. Pickard, Cambridge University      |                
   ============================================================                

 Atomic calculation performed for Ca: 1s2 2s2 2p6 3s2 3p6 4s2

 Converged in 44 iterations to an ae energy of -18468.059 eV

   ============================================================                
   | Pseudopotential Report - Date of generation 16-10-2020   |                
   ------------------------------------------------------------                
   | Element: Ca Ionic charge: 10.00 Level of theory: LDA     |                
   | Atomic Solver: Koelling-Harmon                           |                
   |                                                          |                
   |               Reference Electronic Structure             |                
   |         Orbital         Occupation         Energy        |                
   |            3s              2.000           -1.721        |                
   |            3p              6.000           -1.028        |                
   |            4s              2.000           -0.142        |                
   |                                                          |                
   |                 Pseudopotential Definition               |                
   |        Beta     l      e      Rc     scheme   norm       |                
   |          1      0   -1.721   2.005     qc      0         |                
   |          2      0   -0.142   2.005     qc      0         |                
   |          3      0    0.250   2.005     qc      0         |                
   |          4      1   -1.028   2.005     qc      0         |                
   |          5      1    0.250   2.005     qc      0         |                
   |          6      2    0.000   2.005     qc      0         |                
   |          7      2    0.250   2.005     qc      0         |                
   |         loc     3    0.000   2.005     pn      0         |                
   |                                                          |                
   | Augmentation charge Rinner = 1.401                       |                
   | Partial core correction Rc = 1.401                       |                
   ------------------------------------------------------------                
   | "3|2.0|7|8|9|30U:40:31:32"                               |                
   ------------------------------------------------------------                
   |      Author: Chris J. Pickard, Cambridge University      |                
   ============================================================                

 Pseudo atomic calculation performed for O 2s2 2p4

 Converged in 27 iterations to a total energy of -404.4576 eV


 Pseudo atomic calculation performed for Mg 2s2 2p6 3s2

 Converged in 19 iterations to a total energy of -1684.3836 eV


 Pseudo atomic calculation performed for Ca 3s2 3p6 4s2

 Converged in 24 iterations to a total energy of -1001.5497 eV

 Calculation not parallelised.

 ************************************ Title ************************************
 MgO

 ***************************** General Parameters ******************************
  
 output verbosity                               : normal  (1)
 write checkpoint data to                       : MgO.check
 type of calculation                            : geometry optimization
 stress calculation                             : on
 density difference calculation                 : off
 electron localisation func (ELF) calculation   : off
 Hirshfeld analysis                             : off
 unlimited duration calculation
 timing information                             : on
 memory usage estimate                          : on
 write extra output files                       : on
 write final potential to formatted file        : off
 write final density to formatted file          : off
 write BibTeX reference list                    : on
 write OTFG pseudopotential files               : on
 write electrostatic potential file             : on
 write bands file                               : on
 checkpoint writing                             : both castep_bin and check files
  
 output         length unit                     : A
 output           mass unit                     : amu
 output           time unit                     : ps
 output         charge unit                     : e
 output           spin unit                     : hbar/2
 output         energy unit                     : eV
 output          force unit                     : eV/A
 output       velocity unit                     : A/ps
 output       pressure unit                     : GPa
 output     inv_length unit                     : 1/A
 output      frequency unit                     : cm-1
 output force constant unit                     : eV/A**2
 output         volume unit                     : A**3
 output   IR intensity unit                     : (D/A)**2/amu
 output         dipole unit                     : D
 output         efield unit                     : eV/A/e
 output        entropy unit                     : J/mol/K
  
 wavefunctions paging                           : none
 random number generator seed                   : randomised (112856109)
 data distribution                              : optimal for this architecture
 optimization strategy                          : maximize speed(+++)

 *********************** Exchange-Correlation Parameters ***********************
  
 using functional                               : Local Density Approximation
 relativistic treatment                         : Koelling-Harmon
 DFT+D: Semi-empirical dispersion correction    : off

 ************************* Pseudopotential Parameters **************************
  
 pseudopotential representation                 : reciprocal space
 <beta|phi> representation                      : reciprocal space
 spin-orbit coupling                            : off

 **************************** Basis Set Parameters *****************************
  
 plane wave basis set cut-off                   :   300.0000   eV
 size of standard grid                          :     2.0000
 size of   fine   gmax                          :    17.7472   1/A
 finite basis set correction                    : automatic
 number of sample energies                      :          3
           sample  spacing                      :     5.0000   eV

 **************************** Electronic Parameters ****************************
  
 number of  electrons                           :  64.00    
 net charge of system                           :  0.000    
 treating system as non-spin-polarized
 number of bands                                :         38

 ********************* Electronic Minimization Parameters **********************
  
 Method: Treating system as metallic with density mixing treatment of electrons,
         and number of  SD  steps               :          1
         and number of  CG  steps               :          4
  
 total energy / atom convergence tol.           : 0.1000E-06   eV
 eigen-energy convergence tolerance             : 0.2500E-07   eV
 max force / atom convergence tol.              : ignored
 convergence tolerance window                   :          3   cycles
 max. number of SCF cycles                      :         60
 number of fixed-spin iterations                :         10
 smearing scheme                                : Gaussian
 smearing width                                 : 0.2000       eV
 Fermi energy convergence tolerance             : 0.2721E-13   eV
 periodic dipole correction                     : NONE

 ************************** Density Mixing Parameters **************************
  
 density-mixing scheme                          : Pulay
 max. length of mixing history                  :         30
 charge density mixing amplitude                : 0.8000    
 cut-off energy for mixing                      :  300.0       eV

 *********************** Population Analysis Parameters ************************
  
 Population analysis with cutoff                :  3.000       A
 Population analysis output                     : summary and pdos components

 ********************** Geometry Optimization Parameters ***********************
  
 optimization method                            : LBFGS
 max. no. of LBFGS updates                      : unbounded
 variable cell method                           : fixed basis quality
 max. number of steps                           :         30
 estimated bulk modulus                         :  500.0       GPa
 estimated <frequency>                          :  1668.       cm-1
 geom line minimiser                            : on
 with line minimiser tolerance                  :     0.4000
 total energy convergence tolerance             : 0.2000E-04   eV/atom
        max ionic |force| tolerance             : 0.5000E-01   eV/A
 max ionic |displacement| tolerance             : 0.1000E-02   A
   max |stress component| tolerance             : 0.1000       GPa
 convergence tolerance window                   :          2   steps
 backup results every                           :          5   steps
 write geom trajectory file                     : on

 *******************************************************************************
  

                           -------------------------------
                                      Unit Cell
                           -------------------------------
        Real Lattice(A)                      Reciprocal Lattice(1/A)
     4.3600000     0.0000000     0.0000000        1.441097548   0.000000000   0.000000000
     0.0000000     4.3600000     0.0000000        0.000000000   1.441097548   0.000000000
     0.0000000     0.0000000     4.3600000        0.000000000   0.000000000   1.441097548

                       Lattice parameters(A)       Cell Angles
                    a =      4.360000          alpha =   90.000000
                    b =      4.360000          beta  =   90.000000
                    c =      4.360000          gamma =   90.000000

                       Current cell volume =            82.881856       A**3
                                   density =             2.325764   AMU/A**3
                                           =             3.862021     g/cm^3

                           -------------------------------
                                     Cell Contents
                           -------------------------------
                         Total number of ions in cell =    8
                      Total number of species in cell =    3
                        Max number of any one species =    4

            xxxxxxxxxxxxxxxxxxxxxxxxxxxxxxxxxxxxxxxxxxxxxxxxxxxxxxxxxxxx
            x  Element    Atom        Fractional coordinates of atoms  x
            x            Number           u          v          w      x
            x----------------------------------------------------------x
            x  O            1         0.500000   0.500000   0.500000   x 
            x  O            2         0.500000   0.000000   0.000000   x 
            x  O            3         0.000000   0.500000   0.000000   x 
            x  O            4         0.000000   0.000000   0.500000   x 
            x  Mg           1         0.500000   0.000000   0.500000   x 
            x  Mg           2         0.500000   0.500000   0.000000   x 
            x  Ca           1         0.000000   0.000000   0.000000   x 
            x  Ca           2         0.000000   0.500000   0.500000   x 
            xxxxxxxxxxxxxxxxxxxxxxxxxxxxxxxxxxxxxxxxxxxxxxxxxxxxxxxxxxxx


                         No user defined ionic velocities

                           -------------------------------
                                   Details of Species
                           -------------------------------

                               Mass of species in AMU
                                    O   15.9994000
                                    Mg   24.3050000
                                    Ca   40.0780000

                          Electric Quadrupole Moment (Barn)
                                    O   -0.0255800 Isotope 17
                                    Mg    0.1994000 Isotope 25
                                    Ca   -0.0408000 Isotope 43

                          Files used for pseudopotentials:
                                    O 2|1.1|17|20|23|20:21(qc=8)
                                    Mg 3|1.8|7|8|9|20U:30:21:32
                                    Ca 3|2.0|7|8|9|30U:40:31:32

                           -------------------------------
                              k-Points For BZ Sampling
                           -------------------------------
                       MP grid size for SCF calculation is  3  3  3
                            with an offset of   0.000  0.000  0.000
                       Number of kpoints used =             6

                           -------------------------------
                               Symmetry and Constraints
                           -------------------------------

                      Cell is a supercell containing 2 primitive cells
                      Maximum deviation from symmetry =  0.00000         ANG

                      Number of symmetry operations   =          32
                      Number of ionic constraints     =           3
                      Point group of crystal =    15: D4h, 4/mmm, 4/m 2/m 2/m
                      Space group of crystal =   123: P4/mmm, -P 4 2

             Set iprint > 1 for details on symmetry rotations/translations

                         Centre of mass is constrained
             Set iprint > 1 for details of linear ionic constraints

                         Number of cell constraints= 4
                         Cell constraints are:  1 2 2 0 0 0

                         External pressure/stress (GPa)
                          0.00000   0.00000   0.00000
                                    0.00000   0.00000
                                              0.00000
  
+---------------- MEMORY AND SCRATCH DISK ESTIMATES PER PROCESS --------------+
|                                                     Memory          Disk    |
| Baseline code, static data and system overhead     1370.0 MB         0.0 MB |
| BLAS internal memory storage                          0.0 MB         0.0 MB |
| Model and support data                              105.2 MB         0.0 MB |
| Electronic energy minimisation requirements          14.3 MB         0.0 MB |
| Force calculation requirements                        2.3 MB         0.0 MB |
| Stress calculation requirements                       2.5 MB         0.0 MB |
|                                               ----------------------------- |
| Approx. total storage required per process         1489.5 MB         0.0 MB |
|                                                                             |
| Requirements will fluctuate during execution and may exceed these estimates |
+-----------------------------------------------------------------------------+
Calculating finite basis set correction with  3 cut-off energies.
Calculating total energy with cut-off of  290.000 eV.
------------------------------------------------------------------------ <-- SCF
SCF loop      Energy           Fermi           Energy gain       Timer   <-- SCF
                               energy          per atom          (sec)   <-- SCF
------------------------------------------------------------------------ <-- SCF
Initial  -5.51240640E+003  0.00000000E+000                        18.99  <-- SCF
      1  -6.88643522E+003  1.09403502E+001   1.71753602E+002      20.79  <-- SCF
      2  -7.03923234E+003  6.05985467E+000   1.90996403E+001      22.27  <-- SCF
      3  -7.04171103E+003  6.15378674E+000   3.09836080E-001      23.73  <-- SCF
      4  -7.03821933E+003  7.86149493E+000  -4.36462289E-001      25.24  <-- SCF
      5  -7.03704032E+003  7.38201260E+000  -1.47376192E-001      26.90  <-- SCF
      6  -7.03697568E+003  7.35308643E+000  -8.08081271E-003      28.60  <-- SCF
      7  -7.03697404E+003  7.37438974E+000  -2.04904465E-004      30.18  <-- SCF
      8  -7.03697375E+003  7.36035714E+000  -3.61984382E-005      31.74  <-- SCF
      9  -7.03697374E+003  7.35955996E+000  -6.39030995E-007      33.20  <-- SCF
     10  -7.03697374E+003  7.35938529E+000   6.21132142E-009      34.21  <-- SCF
     11  -7.03697374E+003  7.35939538E+000   1.77803305E-009      35.17  <-- SCF
------------------------------------------------------------------------ <-- SCF
 
Final energy, E             =  -7036.973740994     eV
Final free energy (E-TS)    =  -7036.973741625     eV
(energies not corrected for finite basis set)
 
NB est. 0K energy (E-0.5TS)      =  -7036.973741310     eV
 
Calculating total energy with cut-off of  295.000 eV.
------------------------------------------------------------------------ <-- SCF
SCF loop      Energy           Fermi           Energy gain       Timer   <-- SCF
                               energy          per atom          (sec)   <-- SCF
------------------------------------------------------------------------ <-- SCF
Initial  -7.03697374E+003  0.00000000E+000                        35.59  <-- SCF
      1  -7.04009471E+003  7.15842263E+000   3.90120979E-001      36.81  <-- SCF
      2  -7.04010475E+003  7.15836395E+000   1.25554145E-003      38.35  <-- SCF
      3  -7.04009160E+003  7.27218425E+000  -1.64449101E-003      39.82  <-- SCF
      4  -7.04008240E+003  7.22645721E+000  -1.14987228E-003      41.18  <-- SCF
      5  -7.04008246E+003  7.22614102E+000   7.81388063E-006      42.67  <-- SCF
      6  -7.04008245E+003  7.22826218E+000  -7.14325358E-007      44.03  <-- SCF
      7  -7.04008245E+003  7.22794722E+000  -8.73024669E-008      45.03  <-- SCF
      8  -7.04008245E+003  7.22797267E+000   1.12490173E-009      46.03  <-- SCF
------------------------------------------------------------------------ <-- SCF
 
Final energy, E             =  -7040.082454250     eV
Final free energy (E-TS)    =  -7040.082454252     eV
(energies not corrected for finite basis set)
 
NB est. 0K energy (E-0.5TS)      =  -7040.082454251     eV
 
Calculating total energy with cut-off of  300.000 eV.
------------------------------------------------------------------------ <-- SCF
SCF loop      Energy           Fermi           Energy gain       Timer   <-- SCF
                               energy          per atom          (sec)   <-- SCF
------------------------------------------------------------------------ <-- SCF
Initial  -7.04008245E+003  0.00000000E+000                        46.46  <-- SCF
      1  -7.04534480E+003  7.22796291E+000   6.57792949E-001      47.69  <-- SCF
      2  -7.04537749E+003  7.22796291E+000   4.08662952E-003      49.18  <-- SCF
      3  -7.04534042E+003  7.41474925E+000  -4.63356644E-003      50.63  <-- SCF
      4  -7.04531272E+003  7.34161212E+000  -3.46221618E-003      52.07  <-- SCF
      5  -7.04531306E+003  7.33830010E+000   4.23151236E-005      53.55  <-- SCF
      6  -7.04531305E+003  7.34151115E+000  -2.07202413E-006      54.84  <-- SCF
      7  -7.04531304E+003  7.34119590E+000  -1.92891257E-007      56.00  <-- SCF
      8  -7.04531304E+003  7.34126796E+000  -5.26855400E-009      56.96  <-- SCF
      9  -7.04531304E+003  7.34127408E+000   4.81824529E-010      57.86  <-- SCF
------------------------------------------------------------------------ <-- SCF
 
Final energy, E             =  -7045.313044833     eV
Final free energy (E-TS)    =  -7045.313044868     eV
(energies not corrected for finite basis set)
 
NB est. 0K energy (E-0.5TS)      =  -7045.313044850     eV
 
 For future reference: finite basis dEtot/dlog(Ecut) =    -238.619111eV
 Total energy corrected for finite basis set =   -7044.567177 eV
 
+---------------- MEMORY AND SCRATCH DISK ESTIMATES PER PROCESS --------------+
|                                                     Memory          Disk    |
| Model and support data                              115.5 MB         0.0 MB |
| Electronic energy minimisation requirements          14.3 MB         0.0 MB |
| Geometry minimisation requirements                   18.4 MB         0.0 MB |
|                                               ----------------------------- |
| Approx. total storage required per process          148.2 MB         0.0 MB |
|                                                                             |
| Requirements will fluctuate during execution and may exceed these estimates |
+-----------------------------------------------------------------------------+
 

 *********** Symmetrised Stress Tensor ***********
 *                                               *
 *          Cartesian components (GPa)           *
 * --------------------------------------------- *
 *             x             y             z     *
 *                                               *
 *  x    -43.397835      0.000000      0.000000  *
 *  y      0.000000    -43.331980      0.000000  *
 *  z      0.000000      0.000000    -43.331980  *
 *                                               *
 *  Pressure:   43.3539                          *
 *                                               *
 *************************************************
 LBFGS: finished iteration     0 with enthalpy= -7.04456718E+003 eV
  
 +-----------+-----------------+-----------------+------------+-----+ <-- LBFGS
 | Parameter |      value      |    tolerance    |    units   | OK? | <-- LBFGS
 +-----------+-----------------+-----------------+------------+-----+ <-- LBFGS
 |  dE/ion   |   0.000000E+000 |   2.000000E-005 |         eV | No  | <-- LBFGS
 |   Smax    |   4.339784E+001 |   1.000000E-001 |        GPa | No  | <-- LBFGS
 +-----------+-----------------+-----------------+------------+-----+ <-- LBFGS
  

================================================================================
 Starting LBFGS iteration          1 ...
================================================================================
  
 +------------+-------------+-------------+-----------------+ <-- min LBFGS
 |    Step    |   lambda    |   F.delta'  |    enthalpy     | <-- min LBFGS
 +------------+-------------+-------------+-----------------+ <-- min LBFGS
 |  previous  |    0.000000 |    1.427538 |    -7044.567177 | <-- min LBFGS
 +------------+-------------+-------------+-----------------+ <-- min LBFGS
  

--------------------------------------------------------------------------------
 LBFGS: starting iteration         1 with trial guess (lambda=  1.000000)
--------------------------------------------------------------------------------
 
+---------------- MEMORY AND SCRATCH DISK ESTIMATES PER PROCESS --------------+
|                                                     Memory          Disk    |
| Model and support data                              129.5 MB         0.0 MB |
| Electronic energy minimisation requirements          15.8 MB         0.0 MB |
| Geometry minimisation requirements                   20.3 MB         0.0 MB |
|                                               ----------------------------- |
| Approx. total storage required per process          165.6 MB         0.0 MB |
|                                                                             |
| Requirements will fluctuate during execution and may exceed these estimates |
+-----------------------------------------------------------------------------+
 

                           -------------------------------
                                      Unit Cell
                           -------------------------------
        Real Lattice(A)              Reciprocal Lattice(1/A)
     4.4861430     0.0000000     0.0000000        1.400576230   0.000000000   0.000000000
     0.0000000     4.4859516     0.0000000        0.000000000   1.400635993   0.000000000
     0.0000000     0.0000000     4.4859516        0.000000000   0.000000000   1.400635993

                       Lattice parameters(A)       Cell Angles
                    a =      4.486143          alpha =   90.000000
                    b =      4.485952          beta  =   90.000000
                    c =      4.485952          gamma =   90.000000

                Current cell volume =            90.278075 A**3

------------------------------------------------------------------------ <-- SCF
SCF loop      Energy           Fermi           Energy gain       Timer   <-- SCF
                               energy          per atom          (sec)   <-- SCF
------------------------------------------------------------------------ <-- SCF
Initial  -7.02869881E+003  0.00000000E+000                        62.85  <-- SCF
      1  -7.04873663E+003  5.58335081E+000   2.50472802E+000      65.00  <-- SCF
      2  -7.04889154E+003  5.58299092E+000   1.93629259E-002      67.59  <-- SCF
      3  -7.04579790E+003  6.38432281E+000  -3.86704162E-001      69.95  <-- SCF
      4  -7.04560509E+003  6.04738779E+000  -2.41014192E-002      72.27  <-- SCF
      5  -7.04558348E+003  6.12932180E+000  -2.70132844E-003      74.69  <-- SCF
      6  -7.04558351E+003  6.13209296E+000   3.52073224E-006      77.04  <-- SCF
      7  -7.04558350E+003  6.13122919E+000  -8.49976751E-007      79.09  <-- SCF
      8  -7.04558350E+003  6.13118923E+000  -1.80293634E-008      80.64  <-- SCF
      9  -7.04558350E+003  6.13111191E+000  -1.03808824E-009      82.16  <-- SCF
------------------------------------------------------------------------ <-- SCF
 
Final energy, E             =  -7045.583500247     eV
Final free energy (E-TS)    =  -7045.583502048     eV
(energies not corrected for finite basis set)
 
NB est. 0K energy (E-0.5TS)      =  -7045.583501148     eV
 

 *********** Symmetrised Stress Tensor ***********
 *                                               *
 *          Cartesian components (GPa)           *
 * --------------------------------------------- *
 *             x             y             z     *
 *                                               *
 *  x    -28.898239      0.000000      0.000000  *
 *  y      0.000000    -28.872261      0.000000  *
 *  z      0.000000      0.000000    -28.872261  *
 *                                               *
 *  Pressure:   28.8809                          *
 *                                               *
 *************************************************
  
 +------------+-------------+-------------+-----------------+ <-- min LBFGS
 |    Step    |   lambda    |   F.delta'  |    enthalpy     | <-- min LBFGS
 +------------+-------------+-------------+-----------------+ <-- min LBFGS
 |  previous  |    0.000000 |    1.427538 |    -7044.567177 | <-- min LBFGS
 | trial step |    1.000000 |    1.006743 |    -7046.085552 | <-- min LBFGS
 +------------+-------------+-------------+-----------------+ <-- min LBFGS
  

--------------------------------------------------------------------------------
 LBFGS: improving iteration         1 with line minimization (lambda=  2.097528)
--------------------------------------------------------------------------------
 
+---------------- MEMORY AND SCRATCH DISK ESTIMATES PER PROCESS --------------+
|                                                     Memory          Disk    |
| Model and support data                              130.2 MB         0.0 MB |
| Electronic energy minimisation requirements          17.0 MB         0.0 MB |
| Geometry minimisation requirements                   21.9 MB         0.0 MB |
|                                               ----------------------------- |
| Approx. total storage required per process          169.2 MB         0.0 MB |
|                                                                             |
| Requirements will fluctuate during execution and may exceed these estimates |
+-----------------------------------------------------------------------------+
 

                           -------------------------------
                                      Unit Cell
                           -------------------------------
        Real Lattice(A)              Reciprocal Lattice(1/A)
     4.6245886     0.0000000     0.0000000        1.358647405   0.000000000   0.000000000
     0.0000000     4.6241871     0.0000000        0.000000000   1.358765373   0.000000000
     0.0000000     0.0000000     4.6241871        0.000000000   0.000000000   1.358765373

                       Lattice parameters(A)       Cell Angles
                    a =      4.624589          alpha =   90.000000
                    b =      4.624187          beta  =   90.000000
                    c =      4.624187          gamma =   90.000000

                Current cell volume =            98.888070 A**3

------------------------------------------------------------------------ <-- SCF
SCF loop      Energy           Fermi           Energy gain       Timer   <-- SCF
                               energy          per atom          (sec)   <-- SCF
------------------------------------------------------------------------ <-- SCF
Initial  -7.02700193E+003  0.00000000E+000                        84.41  <-- SCF
      1  -7.04983494E+003  4.56839039E+000   2.85412664E+000      86.55  <-- SCF
      2  -7.05003075E+003  4.56908394E+000   2.44763584E-002      88.76  <-- SCF
      3  -7.04642250E+003  5.54458970E+000  -4.51031367E-001      91.17  <-- SCF
      4  -7.04606463E+003  5.07628194E+000  -4.47340829E-002      93.72  <-- SCF
      5  -7.04602591E+003  5.18206930E+000  -4.84022912E-003      96.17  <-- SCF
      6  -7.04602624E+003  5.18960083E+000   4.13944548E-005      98.68  <-- SCF
      7  -7.04602621E+003  5.18804169E+000  -3.56325712E-006     100.92  <-- SCF
      8  -7.04602621E+003  5.18790610E+000  -7.62982289E-008     102.81  <-- SCF
      9  -7.04602621E+003  5.18809291E+000  -3.45622092E-008     104.36  <-- SCF
     10  -7.04602621E+003  5.18810148E+000   2.91956275E-011     105.86  <-- SCF
     11  -7.04602621E+003  5.18808500E+000   2.24864337E-010     107.35  <-- SCF
------------------------------------------------------------------------ <-- SCF
 
Final energy, E             =  -7046.024564929     eV
Final free energy (E-TS)    =  -7046.026208311     eV
(energies not corrected for finite basis set)
 
NB est. 0K energy (E-0.5TS)      =  -7046.025386620     eV
 

 *********** Symmetrised Stress Tensor ***********
 *                                               *
 *          Cartesian components (GPa)           *
 * --------------------------------------------- *
 *             x             y             z     *
 *                                               *
 *  x    -16.637151     -0.000000      0.000000  *
 *  y     -0.000000    -16.610018      0.000000  *
 *  z      0.000000      0.000000    -16.610018  *
 *                                               *
 *  Pressure:   16.6191                          *
 *                                               *
 *************************************************
  
 +------------+-------------+-------------+-----------------+ <-- min LBFGS
 |    Step    |   lambda    |   F.delta'  |    enthalpy     | <-- min LBFGS
 +------------+-------------+-------------+-----------------+ <-- min LBFGS
 |  previous  |    0.000000 |    1.427538 |    -7044.567177 | <-- min LBFGS
 | trial step |    1.000000 |    1.006743 |    -7046.085552 | <-- min LBFGS
 |  line step |    2.097528 |    0.615586 |    -7046.356247 | <-- min LBFGS
 +------------+-------------+-------------+-----------------+ <-- min LBFGS
  

--------------------------------------------------------------------------------
 LBFGS: improving iteration         1 with quad minimization (lambda=  3.824770)
--------------------------------------------------------------------------------
 
+---------------- MEMORY AND SCRATCH DISK ESTIMATES PER PROCESS --------------+
|                                                     Memory          Disk    |
| Model and support data                              158.5 MB         0.0 MB |
| Electronic energy minimisation requirements          19.7 MB         0.0 MB |
| Geometry minimisation requirements                   25.2 MB         0.0 MB |
|                                               ----------------------------- |
| Approx. total storage required per process          203.4 MB         0.0 MB |
|                                                                             |
| Requirements will fluctuate during execution and may exceed these estimates |
+-----------------------------------------------------------------------------+
 

                           -------------------------------
                                      Unit Cell
                           -------------------------------
        Real Lattice(A)              Reciprocal Lattice(1/A)
     4.8424681     0.0000000     0.0000000        1.297517132   0.000000000   0.000000000
     0.0000000     4.8417360     0.0000000        0.000000000   1.297713333   0.000000000
     0.0000000     0.0000000     4.8417360        0.000000000   0.000000000   1.297713333

                       Lattice parameters(A)       Cell Angles
                    a =      4.842468          alpha =   90.000000
                    b =      4.841736          beta  =   90.000000
                    c =      4.841736          gamma =   90.000000

                Current cell volume =           113.519108 A**3

------------------------------------------------------------------------ <-- SCF
SCF loop      Energy           Fermi           Energy gain       Timer   <-- SCF
                               energy          per atom          (sec)   <-- SCF
------------------------------------------------------------------------ <-- SCF
Initial  -7.01252831E+003  0.00000000E+000                       112.89  <-- SCF
      1  -7.05457051E+003  2.74678403E+000   5.25527453E+000     115.19  <-- SCF
      2  -7.05508223E+003  2.74587019E+000   6.39655671E-002     117.51  <-- SCF
      3  -7.04681169E+003  4.59388451E+000  -1.03381848E+000     120.02  <-- SCF
      4  -7.04552567E+003  3.50808237E+000  -1.60752299E-001     122.92  <-- SCF
      5  -7.04539669E+003  3.70040077E+000  -1.61227139E-002     125.57  <-- SCF
      6  -7.04539808E+003  3.71526171E+000   1.74126478E-004     128.26  <-- SCF
      7  -7.04539796E+003  3.71364318E+000  -1.44280230E-005     130.62  <-- SCF
      8  -7.04539796E+003  3.71235516E+000  -4.21103424E-008     132.95  <-- SCF
      9  -7.04539796E+003  3.71324714E+000  -3.49813502E-007     134.89  <-- SCF
     10  -7.04539796E+003  3.71328218E+000   1.10034647E-008     136.48  <-- SCF
     11  -7.04539796E+003  3.71327015E+000   7.67400302E-010     138.00  <-- SCF
------------------------------------------------------------------------ <-- SCF
 
Final energy, E             =  -7045.388580448     eV
Final free energy (E-TS)    =  -7045.397961106     eV
(energies not corrected for finite basis set)
 
NB est. 0K energy (E-0.5TS)      =  -7045.393270777     eV
 

 *********** Symmetrised Stress Tensor ***********
 *                                               *
 *          Cartesian components (GPa)           *
 * --------------------------------------------- *
 *             x             y             z     *
 *                                               *
 *  x     -4.590105     -0.000000      0.000000  *
 *  y     -0.000000     -4.604001      0.000000  *
 *  z      0.000000      0.000000     -4.604001  *
 *                                               *
 *  Pressure:    4.5994                          *
 *                                               *
 *************************************************
  
 +------------+-------------+-------------+-----------------+ <-- min LBFGS
 |    Step    |   lambda    |   F.delta'  |    enthalpy     | <-- min LBFGS
 +------------+-------------+-------------+-----------------+ <-- min LBFGS
 |  previous  |    0.000000 |    1.427538 |    -7044.567177 | <-- min LBFGS
 | trial step |    1.000000 |    1.006743 |    -7046.085552 | <-- min LBFGS
 |  line step |    2.097528 |    0.615586 |    -7046.356247 | <-- min LBFGS
 |  quad step |    3.824770 |    0.186780 |    -7045.521460 | <-- min LBFGS
 +------------+-------------+-------------+-----------------+ <-- min LBFGS
  
 LBFGS: finished iteration     1 with enthalpy= -7.04552146E+003 eV
  
 +-----------+-----------------+-----------------+------------+-----+ <-- LBFGS
 | Parameter |      value      |    tolerance    |    units   | OK? | <-- LBFGS
 +-----------+-----------------+-----------------+------------+-----+ <-- LBFGS
 |  dE/ion   |   1.192854E-001 |   2.000000E-005 |         eV | No  | <-- LBFGS
 |   Smax    |   4.604001E+000 |   1.000000E-001 |        GPa | No  | <-- LBFGS
 +-----------+-----------------+-----------------+------------+-----+ <-- LBFGS
  

================================================================================
 Starting LBFGS iteration          2 ...
================================================================================
  
 +------------+-------------+-------------+-----------------+ <-- min LBFGS
 |    Step    |   lambda    |   F.delta'  |    enthalpy     | <-- min LBFGS
 +------------+-------------+-------------+-----------------+ <-- min LBFGS
 |  previous  |    0.000000 |    0.186780 |    -7045.521460 | <-- min LBFGS
 +------------+-------------+-------------+-----------------+ <-- min LBFGS
  

--------------------------------------------------------------------------------
 LBFGS: starting iteration         2 with trial guess (lambda=  1.000000)
--------------------------------------------------------------------------------
 
+---------------- MEMORY AND SCRATCH DISK ESTIMATES PER PROCESS --------------+
|                                                     Memory          Disk    |
| Model and support data                              158.9 MB         0.0 MB |
| Electronic energy minimisation requirements          20.3 MB         0.0 MB |
| Geometry minimisation requirements                   26.0 MB         0.0 MB |
|                                               ----------------------------- |
| Approx. total storage required per process          205.2 MB         0.0 MB |
|                                                                             |
| Requirements will fluctuate during execution and may exceed these estimates |
+-----------------------------------------------------------------------------+
 

                           -------------------------------
                                      Unit Cell
                           -------------------------------
        Real Lattice(A)              Reciprocal Lattice(1/A)
     4.9150380    -0.0000000    -0.0000000        1.278359458   0.000000000   0.000000000
    -0.0000000     4.9142846     0.0000000        0.000000000   1.278555428   0.000000000
    -0.0000000     0.0000000     4.9142846        0.000000000   0.000000000   1.278555428

                       Lattice parameters(A)       Cell Angles
                    a =      4.915038          alpha =   90.000000
                    b =      4.914285          beta  =   90.000000
                    c =      4.914285          gamma =   90.000000

                Current cell volume =           118.699119 A**3

------------------------------------------------------------------------ <-- SCF
SCF loop      Energy           Fermi           Energy gain       Timer   <-- SCF
                               energy          per atom          (sec)   <-- SCF
------------------------------------------------------------------------ <-- SCF
Initial  -7.03713178E+003  0.00000000E+000                       140.80  <-- SCF
      1  -7.04551879E+003  3.08306296E+000   1.04837529E+000     143.12  <-- SCF
      2  -7.04558331E+003  3.08298918E+000   8.06574448E-003     146.08  <-- SCF
      3  -7.04478624E+003  3.76516904E+000  -9.96343981E-002     148.66  <-- SCF
      4  -7.04460915E+003  3.34905187E+000  -2.21360193E-002     151.40  <-- SCF
      5  -7.04459744E+003  3.42047427E+000  -1.46298098E-003     154.21  <-- SCF
      6  -7.04459754E+003  3.42344214E+000   1.19316975E-005     157.00  <-- SCF
      7  -7.04459753E+003  3.42145638E+000  -1.38618326E-006     159.46  <-- SCF
      8  -7.04459753E+003  3.42166830E+000  -2.60915329E-007     161.59  <-- SCF
      9  -7.04459753E+003  3.42169829E+000  -1.43485875E-008     163.29  <-- SCF
     10  -7.04459753E+003  3.42174746E+000   2.86155820E-011     165.19  <-- SCF
     11  -7.04459753E+003  3.42175203E+000   2.73201468E-010     166.84  <-- SCF
------------------------------------------------------------------------ <-- SCF
 
Final energy, E             =  -7044.583967502     eV
Final free energy (E-TS)    =  -7044.597526057     eV
(energies not corrected for finite basis set)
 
NB est. 0K energy (E-0.5TS)      =  -7044.590746779     eV
 

 *********** Symmetrised Stress Tensor ***********
 *                                               *
 *          Cartesian components (GPa)           *
 * --------------------------------------------- *
 *             x             y             z     *
 *                                               *
 *  x     -2.491581     -0.000000      0.000000  *
 *  y     -0.000000     -2.513309      0.000000  *
 *  z      0.000000      0.000000     -2.513309  *
 *                                               *
 *  Pressure:    2.5061                          *
 *                                               *
 *************************************************
  
 +------------+-------------+-------------+-----------------+ <-- min LBFGS
 |    Step    |   lambda    |   F.delta'  |    enthalpy     | <-- min LBFGS
 +------------+-------------+-------------+-----------------+ <-- min LBFGS
 |  previous  |    0.000000 |    0.186780 |    -7045.521460 | <-- min LBFGS
 | trial step |    1.000000 |    0.104844 |    -7045.070748 | <-- min LBFGS
 +------------+-------------+-------------+-----------------+ <-- min LBFGS
  
 WARNING in geom_xvec_to_mdl - large cell change detected
                             - consider your initial cell

--------------------------------------------------------------------------------
 LBFGS: improving iteration         2 with line minimization (lambda=  2.279585)
--------------------------------------------------------------------------------
 
+---------------- MEMORY AND SCRATCH DISK ESTIMATES PER PROCESS --------------+
|                                                     Memory          Disk    |
| Model and support data                              159.4 MB         0.0 MB |
| Electronic energy minimisation requirements          21.3 MB         0.0 MB |
| Geometry minimisation requirements                   27.4 MB         0.0 MB |
|                                               ----------------------------- |
| Approx. total storage required per process          208.2 MB         0.0 MB |
|                                                                             |
| Requirements will fluctuate during execution and may exceed these estimates |
+-----------------------------------------------------------------------------+
 

                           -------------------------------
                                      Unit Cell
                           -------------------------------
        Real Lattice(A)              Reciprocal Lattice(1/A)
     5.0078973    -0.0000000    -0.0000000        1.254655377   0.000000000   0.000000000
    -0.0000000     5.0071168     0.0000000        0.000000000   1.254850952   0.000000000
    -0.0000000     0.0000000     5.0071168        0.000000000   0.000000000   1.254850952

                       Lattice parameters(A)       Cell Angles
                    a =      5.007897          alpha =   90.000000
                    b =      5.007117          beta  =   90.000000
                    c =      5.007117          gamma =   90.000000

                Current cell volume =           125.554090 A**3

------------------------------------------------------------------------ <-- SCF
SCF loop      Energy           Fermi           Energy gain       Timer   <-- SCF
                               energy          per atom          (sec)   <-- SCF
------------------------------------------------------------------------ <-- SCF
Initial  -7.03368298E+003  0.00000000E+000                       169.71  <-- SCF
      1  -7.04629154E+003  2.78669185E+000   1.57607010E+000     172.09  <-- SCF
      2  -7.04639960E+003  2.78692895E+000   1.35069986E-002     175.12  <-- SCF
      3  -7.04509289E+003  3.92550819E+000  -1.63337988E-001     177.78  <-- SCF
      4  -7.04472409E+003  3.28094735E+000  -4.60998270E-002     180.66  <-- SCF
      5  -7.04470685E+003  3.39525230E+000  -2.15609241E-003     183.41  <-- SCF
      6  -7.04470700E+003  3.40650658E+000   1.93900338E-005     186.21  <-- SCF
      7  -7.04470691E+003  3.40508155E+000  -1.10135497E-005     188.60  <-- SCF
      8  -7.04470691E+003  3.40363380E+000  -4.88472431E-007     191.13  <-- SCF
      9  -7.04470691E+003  3.40385489E+000   1.24690465E-009     192.86  <-- SCF
     10  -7.04470691E+003  3.40395996E+000   6.97794833E-010     194.53  <-- SCF
     11  -7.04470691E+003  3.40396578E+000   3.82056689E-010     196.26  <-- SCF
------------------------------------------------------------------------ <-- SCF
 
Final energy, E             =  -7044.695259410     eV
Final free energy (E-TS)    =  -7044.706908134     eV
(energies not corrected for finite basis set)
 
NB est. 0K energy (E-0.5TS)      =  -7044.701083772     eV
 

 *********** Symmetrised Stress Tensor ***********
 *                                               *
 *          Cartesian components (GPa)           *
 * --------------------------------------------- *
 *             x             y             z     *
 *                                               *
 *  x      1.086258     -0.000000      0.000000  *
 *  y     -0.000000      1.119228      0.000000  *
 *  z      0.000000      0.000000      1.119228  *
 *                                               *
 *  Pressure:   -1.1082                          *
 *                                               *
 *************************************************
  
 +------------+-------------+-------------+-----------------+ <-- min LBFGS
 |    Step    |   lambda    |   F.delta'  |    enthalpy     | <-- min LBFGS
 +------------+-------------+-------------+-----------------+ <-- min LBFGS
 |  previous  |    0.000000 |    0.186780 |    -7045.521460 | <-- min LBFGS
 | trial step |    1.000000 |    0.104844 |    -7045.070748 | <-- min LBFGS
 |  line step |    2.279585 |   -0.048133 |    -7044.315806 | <-- min LBFGS
 +------------+-------------+-------------+-----------------+ <-- min LBFGS
  
 LBFGS: finished iteration     2 with enthalpy= -7.04431581E+003 eV
  
 +-----------+-----------------+-----------------+------------+-----+ <-- LBFGS
 | Parameter |      value      |    tolerance    |    units   | OK? | <-- LBFGS
 +-----------+-----------------+-----------------+------------+-----+ <-- LBFGS
 |  dE/ion   |   1.507067E-001 |   2.000000E-005 |         eV | No  | <-- LBFGS
 |   Smax    |   1.119228E+000 |   1.000000E-001 |        GPa | No  | <-- LBFGS
 +-----------+-----------------+-----------------+------------+-----+ <-- LBFGS
  

================================================================================
 Starting LBFGS iteration          3 ...
================================================================================
  
 +------------+-------------+-------------+-----------------+ <-- min LBFGS
 |    Step    |   lambda    |   F.delta'  |    enthalpy     | <-- min LBFGS
 +------------+-------------+-------------+-----------------+ <-- min LBFGS
 |  previous  |    0.000000 |    0.048133 |    -7044.315806 | <-- min LBFGS
 +------------+-------------+-------------+-----------------+ <-- min LBFGS
  

--------------------------------------------------------------------------------
 LBFGS: starting iteration         3 with trial guess (lambda=  1.000000)
--------------------------------------------------------------------------------

                           -------------------------------
                                      Unit Cell
                           -------------------------------
        Real Lattice(A)              Reciprocal Lattice(1/A)
     4.9740619    -0.0000000    -0.0000000        1.263190001   0.000000000   0.000000000
    -0.0000000     4.9732010     0.0000000        0.000000000   1.263408671   0.000000000
    -0.0000000     0.0000000     4.9732010        0.000000000   0.000000000   1.263408671

                       Lattice parameters(A)       Cell Angles
                    a =      4.974062          alpha =   90.000000
                    b =      4.973201          beta  =   90.000000
                    c =      4.973201          gamma =   90.000000

                Current cell volume =           123.022124 A**3

------------------------------------------------------------------------ <-- SCF
SCF loop      Energy           Fermi           Energy gain       Timer   <-- SCF
                               energy          per atom          (sec)   <-- SCF
------------------------------------------------------------------------ <-- SCF
Initial  -7.04399738E+003  0.00000000E+000                       199.10  <-- SCF
      1  -7.04454128E+003  3.56243661E+000   6.79867438E-002     201.45  <-- SCF
      2  -7.04454560E+003  3.56242704E+000   5.40341890E-004     204.36  <-- SCF
      3  -7.04439578E+003  3.25638360E+000  -1.87272100E-002     206.91  <-- SCF
      4  -7.04437533E+003  3.42271543E+000  -2.55676442E-003     209.61  <-- SCF
      5  -7.04437290E+003  3.38318809E+000  -3.03833713E-004     212.31  <-- SCF
      6  -7.04437292E+003  3.38033153E+000   3.31539649E-006     214.96  <-- SCF
      7  -7.04437291E+003  3.38109828E+000  -1.28026268E-006     217.26  <-- SCF
      8  -7.04437291E+003  3.38136094E+000  -2.37468727E-008     219.00  <-- SCF
      9  -7.04437291E+003  3.38137698E+000   4.17439469E-009     220.57  <-- SCF
------------------------------------------------------------------------ <-- SCF
 
Final energy, E             =  -7044.360737510     eV
Final free energy (E-TS)    =  -7044.372911871     eV
(energies not corrected for finite basis set)
 
NB est. 0K energy (E-0.5TS)      =  -7044.366824691     eV
 

 *********** Symmetrised Stress Tensor ***********
 *                                               *
 *          Cartesian components (GPa)           *
 * --------------------------------------------- *
 *             x             y             z     *
 *                                               *
 *  x     -0.608199      0.000000      0.000000  *
 *  y      0.000000     -0.590782      0.000000  *
 *  z      0.000000      0.000000     -0.590782  *
 *                                               *
 *  Pressure:    0.5966                          *
 *                                               *
 *************************************************
  
 +------------+-------------+-------------+-----------------+ <-- min LBFGS
 |    Step    |   lambda    |   F.delta'  |    enthalpy     | <-- min LBFGS
 +------------+-------------+-------------+-----------------+ <-- min LBFGS
 |  previous  |    0.000000 |    0.048133 |    -7044.315806 | <-- min LBFGS
 | trial step |    1.000000 |   -0.025561 |    -7044.639546 | <-- min LBFGS
 +------------+-------------+-------------+-----------------+ <-- min LBFGS
  
 LBFGS: finished iteration     3 with enthalpy= -7.04463955E+003 eV
  
 +-----------+-----------------+-----------------+------------+-----+ <-- LBFGS
 | Parameter |      value      |    tolerance    |    units   | OK? | <-- LBFGS
 +-----------+-----------------+-----------------+------------+-----+ <-- LBFGS
 |  dE/ion   |   4.046753E-002 |   2.000000E-005 |         eV | No  | <-- LBFGS
 |   Smax    |   6.081994E-001 |   1.000000E-001 |        GPa | No  | <-- LBFGS
 +-----------+-----------------+-----------------+------------+-----+ <-- LBFGS
  

================================================================================
 Starting LBFGS iteration          4 ...
================================================================================
  
 +------------+-------------+-------------+-----------------+ <-- min LBFGS
 |    Step    |   lambda    |   F.delta'  |    enthalpy     | <-- min LBFGS
 +------------+-------------+-------------+-----------------+ <-- min LBFGS
 |  previous  |    0.000000 |    0.025562 |    -7044.639546 | <-- min LBFGS
 +------------+-------------+-------------+-----------------+ <-- min LBFGS
  

--------------------------------------------------------------------------------
 LBFGS: starting iteration         4 with trial guess (lambda=  1.000000)
--------------------------------------------------------------------------------

                           -------------------------------
                                      Unit Cell
                           -------------------------------
        Real Lattice(A)              Reciprocal Lattice(1/A)
     4.9858558    -0.0000000    -0.0000000        1.260201969   0.000000000   0.000000000
    -0.0000000     4.9849359     0.0000000        0.000000000   1.260434512   0.000000000
    -0.0000000     0.0000000     4.9849359        0.000000000   0.000000000   1.260434512

                       Lattice parameters(A)       Cell Angles
                    a =      4.985856          alpha =   90.000000
                    b =      4.984936          beta  =   90.000000
                    c =      4.984936          gamma =   90.000000

                Current cell volume =           123.896455 A**3

------------------------------------------------------------------------ <-- SCF
SCF loop      Energy           Fermi           Energy gain       Timer   <-- SCF
                               energy          per atom          (sec)   <-- SCF
------------------------------------------------------------------------ <-- SCF
Initial  -7.04320494E+003  0.00000000E+000                       223.48  <-- SCF
      1  -7.04499628E+003  3.30427968E+000   2.23917944E-001     225.81  <-- SCF
      2  -7.04500681E+003  3.30427902E+000   1.31568695E-003     228.72  <-- SCF
      3  -7.04498361E+003  3.51881594E+000  -2.89919628E-003     231.25  <-- SCF
      4  -7.04497032E+003  3.40874389E+000  -1.66198006E-003     233.93  <-- SCF
      5  -7.04497029E+003  3.41944773E+000  -2.86939519E-006     236.62  <-- SCF
      6  -7.04497029E+003  3.42124941E+000  -9.02235765E-008     238.92  <-- SCF
      7  -7.04497029E+003  3.42119208E+000  -2.29065993E-007     240.92  <-- SCF
      8  -7.04497029E+003  3.42113370E+000   6.44430639E-010     242.69  <-- SCF
      9  -7.04497029E+003  3.42112934E+000   8.21537890E-010     244.43  <-- SCF
------------------------------------------------------------------------ <-- SCF
 
Final energy, E             =  -7044.958730207     eV
Final free energy (E-TS)    =  -7044.970292266     eV
(energies not corrected for finite basis set)
 
NB est. 0K energy (E-0.5TS)      =  -7044.964511236     eV
 

 *********** Symmetrised Stress Tensor ***********
 *                                               *
 *          Cartesian components (GPa)           *
 * --------------------------------------------- *
 *             x             y             z     *
 *                                               *
 *  x      0.661915      0.000000      0.000000  *
 *  y      0.000000      0.686085      0.000000  *
 *  z      0.000000      0.000000      0.686085  *
 *                                               *
 *  Pressure:   -0.6780                          *
 *                                               *
 *************************************************
  
 +------------+-------------+-------------+-----------------+ <-- min LBFGS
 |    Step    |   lambda    |   F.delta'  |    enthalpy     | <-- min LBFGS
 +------------+-------------+-------------+-----------------+ <-- min LBFGS
 |  previous  |    0.000000 |    0.025562 |    -7044.639546 | <-- min LBFGS
 | trial step |    1.000000 |   -0.029187 |    -7044.425865 | <-- min LBFGS
 +------------+-------------+-------------+-----------------+ <-- min LBFGS
  

--------------------------------------------------------------------------------
 LBFGS: improving iteration         4 with line minimization (lambda=  0.466895)
--------------------------------------------------------------------------------

                           -------------------------------
                                      Unit Cell
                           -------------------------------
        Real Lattice(A)              Reciprocal Lattice(1/A)
     4.9795684    -0.0000000    -0.0000000        1.261793143   0.000000000   0.000000000
    -0.0000000     4.9786800     0.0000000        0.000000000   1.262018306   0.000000000
    -0.0000000     0.0000000     4.9786800        0.000000000   0.000000000   1.262018306

                       Lattice parameters(A)       Cell Angles
                    a =      4.979568          alpha =   90.000000
                    b =      4.978680          beta  =   90.000000
                    c =      4.978680          gamma =   90.000000

                Current cell volume =           123.429831 A**3

------------------------------------------------------------------------ <-- SCF
SCF loop      Energy           Fermi           Energy gain       Timer   <-- SCF
                               energy          per atom          (sec)   <-- SCF
------------------------------------------------------------------------ <-- SCF
Initial  -7.04390969E+003  0.00000000E+000                       247.26  <-- SCF
      1  -7.04398337E+003  3.42869254E+000   9.21070030E-003     249.72  <-- SCF
      2  -7.04398402E+003  3.42869223E+000   8.17153962E-005     252.60  <-- SCF
      3  -7.04397788E+003  3.31970489E+000  -7.68009316E-004     255.16  <-- SCF
      4  -7.04397472E+003  3.37261442E+000  -3.95517432E-004     257.95  <-- SCF
      5  -7.04397469E+003  3.36735508E+000  -3.08314373E-006     260.44  <-- SCF
      6  -7.04397469E+003  3.36637675E+000  -1.08279815E-007     262.60  <-- SCF
      7  -7.04397469E+003  3.36619098E+000  -3.83292186E-008     264.30  <-- SCF
      8  -7.04397469E+003  3.36623036E+000   2.85595109E-009     265.93  <-- SCF
------------------------------------------------------------------------ <-- SCF
 
Final energy, E             =  -7043.962605589     eV
Final free energy (E-TS)    =  -7043.974690742     eV
(energies not corrected for finite basis set)
 
NB est. 0K energy (E-0.5TS)      =  -7043.968648165     eV
 

 *********** Symmetrised Stress Tensor ***********
 *                                               *
 *          Cartesian components (GPa)           *
 * --------------------------------------------- *
 *             x             y             z     *
 *                                               *
 *  x     -0.795368     -0.000000      0.000000  *
 *  y     -0.000000     -0.867389      0.000000  *
 *  z      0.000000      0.000000     -0.867389  *
 *                                               *
 *  Pressure:    0.8434                          *
 *                                               *
 *************************************************
  
 +------------+-------------+-------------+-----------------+ <-- min LBFGS
 |    Step    |   lambda    |   F.delta'  |    enthalpy     | <-- min LBFGS
 +------------+-------------+-------------+-----------------+ <-- min LBFGS
 |  previous  |    0.000000 |    0.025562 |    -7044.639546 | <-- min LBFGS
 | trial step |    1.000000 |   -0.029187 |    -7044.425865 | <-- min LBFGS
 |  line step |    0.466895 |    0.036212 |    -7044.637181 | <-- min LBFGS
 +------------+-------------+-------------+-----------------+ <-- min LBFGS
  

--------------------------------------------------------------------------------
 LBFGS: improving iteration         4 with quad minimization (lambda=  1.192107)
--------------------------------------------------------------------------------

                           -------------------------------
                                      Unit Cell
                           -------------------------------
        Real Lattice(A)              Reciprocal Lattice(1/A)
     4.9881215    -0.0000000    -0.0000000        1.259629566   0.000000000   0.000000000
    -0.0000000     4.9871903     0.0000000        0.000000000   1.259864759   0.000000000
    -0.0000000     0.0000000     4.9871903        0.000000000   0.000000000   1.259864759

                       Lattice parameters(A)       Cell Angles
                    a =      4.988121          alpha =   90.000000
                    b =      4.987190          beta  =   90.000000
                    c =      4.987190          gamma =   90.000000

                Current cell volume =           124.064892 A**3

------------------------------------------------------------------------ <-- SCF
SCF loop      Energy           Fermi           Energy gain       Timer   <-- SCF
                               energy          per atom          (sec)   <-- SCF
------------------------------------------------------------------------ <-- SCF
Initial  -7.04313254E+003  0.00000000E+000                       268.73  <-- SCF
      1  -7.04476769E+003  3.30999619E+000   2.04393952E-001     271.12  <-- SCF
      2  -7.04477774E+003  3.30999561E+000   1.25651722E-003     274.11  <-- SCF
      3  -7.04476423E+003  3.50014974E+000  -1.68895483E-003     276.67  <-- SCF
      4  -7.04475347E+003  3.40490668E+000  -1.34479041E-003     279.41  <-- SCF
      5  -7.04475355E+003  3.41097828E+000   9.91818855E-006     281.96  <-- SCF
      6  -7.04475355E+003  3.41248183E+000  -4.27803724E-007     284.33  <-- SCF
      7  -7.04475354E+003  3.41273274E+000  -1.68248988E-007     286.33  <-- SCF
      8  -7.04475354E+003  3.41273221E+000   4.96016310E-009     288.03  <-- SCF
      9  -7.04475354E+003  3.41273801E+000   7.96402581E-010     289.81  <-- SCF
------------------------------------------------------------------------ <-- SCF
 
Final energy, E             =  -7044.741981157     eV
Final free energy (E-TS)    =  -7044.753543727     eV
(energies not corrected for finite basis set)
 
NB est. 0K energy (E-0.5TS)      =  -7044.747762442     eV
 

 *********** Symmetrised Stress Tensor ***********
 *                                               *
 *          Cartesian components (GPa)           *
 * --------------------------------------------- *
 *             x             y             z     *
 *                                               *
 *  x      0.494985      0.000000      0.000000  *
 *  y      0.000000      0.519639      0.000000  *
 *  z      0.000000      0.000000      0.519639  *
 *                                               *
 *  Pressure:   -0.5114                          *
 *                                               *
 *************************************************
  
 +------------+-------------+-------------+-----------------+ <-- min LBFGS
 |    Step    |   lambda    |   F.delta'  |    enthalpy     | <-- min LBFGS
 +------------+-------------+-------------+-----------------+ <-- min LBFGS
 |  previous  |    0.000000 |    0.025562 |    -7044.639546 | <-- min LBFGS
 | trial step |    1.000000 |   -0.029187 |    -7044.425865 | <-- min LBFGS
 |  line step |    0.466895 |    0.036212 |    -7044.637181 | <-- min LBFGS
 |  quad step |    1.192107 |   -0.022035 |    -7044.425238 | <-- min LBFGS
 +------------+-------------+-------------+-----------------+ <-- min LBFGS
  
 LBFGS: finished iteration     4 with enthalpy= -7.04442524E+003 eV
  
 +-----------+-----------------+-----------------+------------+-----+ <-- LBFGS
 | Parameter |      value      |    tolerance    |    units   | OK? | <-- LBFGS
 +-----------+-----------------+-----------------+------------+-----+ <-- LBFGS
 |  dE/ion   |   2.678852E-002 |   2.000000E-005 |         eV | No  | <-- LBFGS
 |   Smax    |   5.196393E-001 |   1.000000E-001 |        GPa | No  | <-- LBFGS
 +-----------+-----------------+-----------------+------------+-----+ <-- LBFGS
  

================================================================================
 Starting LBFGS iteration          5 ...
================================================================================

Writing analysis data to MgO.castep_bin

Writing model to MgO.check
  
 +------------+-------------+-------------+-----------------+ <-- min LBFGS
 |    Step    |   lambda    |   F.delta'  |    enthalpy     | <-- min LBFGS
 +------------+-------------+-------------+-----------------+ <-- min LBFGS
 |  previous  |    0.000000 |    0.022038 |    -7044.425238 | <-- min LBFGS
 +------------+-------------+-------------+-----------------+ <-- min LBFGS
  

--------------------------------------------------------------------------------
 LBFGS: starting iteration         5 with trial guess (lambda=  1.000000)
--------------------------------------------------------------------------------

                           -------------------------------
                                      Unit Cell
                           -------------------------------
        Real Lattice(A)              Reciprocal Lattice(1/A)
     4.9816667    -0.0000000    -0.0000000        1.261261675   0.000000000   0.000000000
    -0.0000000     4.9806872     0.0000000        0.000000000   1.261509721   0.000000000
    -0.0000000     0.0000000     4.9806872        0.000000000   0.000000000   1.261509721

                       Lattice parameters(A)       Cell Angles
                    a =      4.981667          alpha =   90.000000
                    b =      4.980687          beta  =   90.000000
                    c =      4.980687          gamma =   90.000000

                Current cell volume =           123.581426 A**3

------------------------------------------------------------------------ <-- SCF
SCF loop      Energy           Fermi           Energy gain       Timer   <-- SCF
                               energy          per atom          (sec)   <-- SCF
------------------------------------------------------------------------ <-- SCF
Initial  -7.04396785E+003  0.00000000E+000                       292.79  <-- SCF
      1  -7.04403856E+003  3.42504387E+000   8.83909029E-003     295.32  <-- SCF
      2  -7.04403922E+003  3.42504384E+000   8.17079370E-005     298.27  <-- SCF
      3  -7.04403301E+003  3.32402861E+000  -7.76367972E-004     300.91  <-- SCF
      4  -7.04403042E+003  3.37393831E+000  -3.23253429E-004     303.61  <-- SCF
      5  -7.04403038E+003  3.36777453E+000  -5.37080483E-006     306.08  <-- SCF
      6  -7.04403038E+003  3.36688905E+000  -6.61814606E-008     308.38  <-- SCF
      7  -7.04403038E+003  3.36672918E+000  -4.32698535E-008     310.02  <-- SCF
      8  -7.04403038E+003  3.36678163E+000   2.45997331E-009     311.65  <-- SCF
------------------------------------------------------------------------ <-- SCF
 
Final energy, E             =  -7044.018788956     eV
Final free energy (E-TS)    =  -7044.030375579     eV
(energies not corrected for finite basis set)
 
NB est. 0K energy (E-0.5TS)      =  -7044.024582268     eV
 

 *********** Symmetrised Stress Tensor ***********
 *                                               *
 *          Cartesian components (GPa)           *
 * --------------------------------------------- *
 *             x             y             z     *
 *                                               *
 *  x     -0.697773     -0.000000      0.000000  *
 *  y     -0.000000     -0.670407      0.000000  *
 *  z      0.000000      0.000000     -0.670407  *
 *                                               *
 *  Pressure:    0.6795                          *
 *                                               *
 *************************************************
  
 +------------+-------------+-------------+-----------------+ <-- min LBFGS
 |    Step    |   lambda    |   F.delta'  |    enthalpy     | <-- min LBFGS
 +------------+-------------+-------------+-----------------+ <-- min LBFGS
 |  previous  |    0.000000 |    0.022038 |    -7044.425238 | <-- min LBFGS
 | trial step |    1.000000 |   -0.029201 |    -7044.628519 | <-- min LBFGS
 +------------+-------------+-------------+-----------------+ <-- min LBFGS
  

--------------------------------------------------------------------------------
 LBFGS: improving iteration         5 with line minimization (lambda=  0.430097)
--------------------------------------------------------------------------------

                           -------------------------------
                                      Unit Cell
                           -------------------------------
        Real Lattice(A)              Reciprocal Lattice(1/A)
     4.9853453    -0.0000000    -0.0000000        1.260331014   0.000000000   0.000000000
    -0.0000000     4.9843933     0.0000000        0.000000000   1.260571727   0.000000000
    -0.0000000     0.0000000     4.9843933        0.000000000   0.000000000   1.260571727

                       Lattice parameters(A)       Cell Angles
                    a =      4.985345          alpha =   90.000000
                    b =      4.984393          beta  =   90.000000
                    c =      4.984393          gamma =   90.000000

                Current cell volume =           123.856801 A**3

------------------------------------------------------------------------ <-- SCF
SCF loop      Energy           Fermi           Energy gain       Timer   <-- SCF
                               energy          per atom          (sec)   <-- SCF
------------------------------------------------------------------------ <-- SCF
Initial  -7.04366268E+003  0.00000000E+000                       314.52  <-- SCF
      1  -7.04457257E+003  3.34350356E+000   1.13736969E-001     316.95  <-- SCF
      2  -7.04457761E+003  3.34350355E+000   6.30155879E-004     319.87  <-- SCF
      3  -7.04457464E+003  3.44828319E+000  -3.71183676E-004     322.44  <-- SCF
      4  -7.04457142E+003  3.39675571E+000  -4.03437130E-004     325.15  <-- SCF
      5  -7.04457146E+003  3.39912072E+000   5.02357852E-006     327.52  <-- SCF
      6  -7.04457146E+003  3.39988895E+000  -2.41913810E-008     329.58  <-- SCF
      7  -7.04457146E+003  3.39996483E+000  -5.55223496E-008     331.31  <-- SCF
------------------------------------------------------------------------ <-- SCF
 
Final energy, E             =  -7044.559886331     eV
Final free energy (E-TS)    =  -7044.571455751     eV
(energies not corrected for finite basis set)
 
NB est. 0K energy (E-0.5TS)      =  -7044.565671041     eV
 

 *********** Symmetrised Stress Tensor ***********
 *                                               *
 *          Cartesian components (GPa)           *
 * --------------------------------------------- *
 *             x             y             z     *
 *                                               *
 *  x      0.351107     -0.000000      0.000000  *
 *  y     -0.000000      0.038949      0.000000  *
 *  z      0.000000      0.000000      0.038949  *
 *                                               *
 *  Pressure:   -0.1430                          *
 *                                               *
 *************************************************
  
 +------------+-------------+-------------+-----------------+ <-- min LBFGS
 |    Step    |   lambda    |   F.delta'  |    enthalpy     | <-- min LBFGS
 +------------+-------------+-------------+-----------------+ <-- min LBFGS
 |  previous  |    0.000000 |    0.022038 |    -7044.425238 | <-- min LBFGS
 | trial step |    1.000000 |   -0.029201 |    -7044.628519 | <-- min LBFGS
 |  line step |    0.430097 |    0.006132 |    -7044.488267 | <-- min LBFGS
 +------------+-------------+-------------+-----------------+ <-- min LBFGS
  
 LBFGS: finished iteration     5 with enthalpy= -7.04448827E+003 eV
  
 +-----------+-----------------+-----------------+------------+-----+ <-- LBFGS
[...]
      3  -7.04412028E+003  3.38662448E+000  -2.13470115E-007     974.57  <-- SCF
      4  -7.04412028E+003  3.38659973E+000  -8.62121746E-009     976.10  <-- SCF
      5  -7.04412028E+003  3.38661817E+000  -7.49805587E-010     977.73  <-- SCF
------------------------------------------------------------------------ <-- SCF
 
Final energy, E             =  -7044.108888929     eV
Final free energy (E-TS)    =  -7044.120280046     eV
(energies not corrected for finite basis set)
 
NB est. 0K energy (E-0.5TS)      =  -7044.114584487     eV
 

 *********** Symmetrised Stress Tensor ***********
 *                                               *
 *          Cartesian components (GPa)           *
 * --------------------------------------------- *
 *             x             y             z     *
 *                                               *
 *  x     -0.100132     -0.000000      0.000000  *
 *  y     -0.000000      0.053671      0.000000  *
 *  z      0.000000      0.000000      0.053671  *
 *                                               *
 *  Pressure:   -0.0024                          *
 *                                               *
 *************************************************
  
 +------------+-------------+-------------+-----------------+ <-- min LBFGS
 |    Step    |   lambda    |   F.delta'  |    enthalpy     | <-- min LBFGS
 +------------+-------------+-------------+-----------------+ <-- min LBFGS
 |  previous  |    0.000000 |    0.004705 |    -7044.442863 | <-- min LBFGS
 | trial step |    1.000000 |    0.003044 |    -7044.449950 | <-- min LBFGS
 |  line step |    2.831584 |    0.003127 |    -7044.449957 | <-- min LBFGS
 +------------+-------------+-------------+-----------------+ <-- min LBFGS
  

--------------------------------------------------------------------------------
 LBFGS: improving iteration        18 with quad minimization (lambda=-65.684490)
--------------------------------------------------------------------------------

                           -------------------------------
                                      Unit Cell
                           -------------------------------
        Real Lattice(A)              Reciprocal Lattice(1/A)
     4.9666239    -0.0000000    -0.0000000        1.265081768   0.000000000   0.000000000
    -0.0000000     5.0076186    -0.0000000        0.000000000   1.254725203   0.000000000
    -0.0000000    -0.0000000     5.0076186        0.000000000   0.000000000   1.254725203

                       Lattice parameters(A)       Cell Angles
                    a =      4.966624          alpha =   90.000000
                    b =      5.007619          beta  =   90.000000
                    c =      5.007619          gamma =   90.000000

                Current cell volume =           124.544274 A**3

------------------------------------------------------------------------ <-- SCF
SCF loop      Energy           Fermi           Energy gain       Timer   <-- SCF
                               energy          per atom          (sec)   <-- SCF
------------------------------------------------------------------------ <-- SCF
Initial  -7.04389502E+003  0.00000000E+000                       980.45  <-- SCF
      1  -7.04417349E+003  3.38361768E+000   3.48086755E-002     982.76  <-- SCF
      2  -7.04417471E+003  3.38359869E+000   1.52034634E-004     985.68  <-- SCF
      3  -7.04417251E+003  3.38663804E+000  -2.74913640E-004     988.42  <-- SCF
      4  -7.04417241E+003  3.38021993E+000  -1.23527257E-005     990.87  <-- SCF
      5  -7.04417229E+003  3.38185684E+000  -1.47031092E-005     993.44  <-- SCF
      6  -7.04417229E+003  3.38302247E+000   1.48278598E-007     995.77  <-- SCF
      7  -7.04417229E+003  3.38233182E+000  -8.26361936E-008     997.52  <-- SCF
      8  -7.04417229E+003  3.38224955E+000   5.22543728E-009     999.20  <-- SCF
------------------------------------------------------------------------ <-- SCF
 
Final energy, E             =  -7044.160947624     eV
Final free energy (E-TS)    =  -7044.172291309     eV
(energies not corrected for finite basis set)
 
NB est. 0K energy (E-0.5TS)      =  -7044.166619466     eV
 

 *********** Symmetrised Stress Tensor ***********
 *                                               *
 *          Cartesian components (GPa)           *
 * --------------------------------------------- *
 *             x             y             z     *
 *                                               *
 *  x     -0.205073     -0.000000      0.000000  *
 *  y     -0.000000      0.131938      0.000000  *
 *  z      0.000000      0.000000      0.131938  *
 *                                               *
 *  Pressure:   -0.0196                          *
 *                                               *
 *************************************************
  
 +------------+-------------+-------------+-----------------+ <-- min LBFGS
 |    Step    |   lambda    |   F.delta'  |    enthalpy     | <-- min LBFGS
 +------------+-------------+-------------+-----------------+ <-- min LBFGS
 |  previous  |    0.000000 |    0.004705 |    -7044.442863 | <-- min LBFGS
 | trial step |    1.000000 |    0.003044 |    -7044.449950 | <-- min LBFGS
 |  line step |    2.831584 |    0.003127 |    -7044.449957 | <-- min LBFGS
 |  quad step |  -65.684490 |    0.006822 |    -7044.441775 | <-- min LBFGS
 +------------+-------------+-------------+-----------------+ <-- min LBFGS
  
 LBFGS: reverting to earlier configuration

                           -------------------------------
                                      Unit Cell
                           -------------------------------
        Real Lattice(A)              Reciprocal Lattice(1/A)
     4.9778435    -0.0000000    -0.0000000        1.262230375   0.000000000   0.000000000
    -0.0000000     5.0026451    -0.0000000        0.000000000   1.255972626   0.000000000
    -0.0000000    -0.0000000     5.0026451        0.000000000   0.000000000   1.255972626

                       Lattice parameters(A)       Cell Angles
                    a =      4.977844          alpha =   90.000000
                    b =      5.002645          beta  =   90.000000
                    c =      5.002645          gamma =   90.000000

                Current cell volume =           124.577792 A**3

 LBFGS: finished iteration    18 with enthalpy= -7.04444995E+003 eV
  
 +-----------+-----------------+-----------------+------------+-----+ <-- LBFGS
 | Parameter |      value      |    tolerance    |    units   | OK? | <-- LBFGS
 +-----------+-----------------+-----------------+------------+-----+ <-- LBFGS
 |  dE/ion   |   8.859775E-004 |   2.000000E-005 |         eV | No  | <-- LBFGS
 |   Smax    |   9.766041E-002 |   1.000000E-001 |        GPa | Yes | <-- LBFGS
 +-----------+-----------------+-----------------+------------+-----+ <-- LBFGS
  

================================================================================
 Starting LBFGS iteration         19 ...
================================================================================
  
 +------------+-------------+-------------+-----------------+ <-- min LBFGS
 |    Step    |   lambda    |   F.delta'  |    enthalpy     | <-- min LBFGS
 +------------+-------------+-------------+-----------------+ <-- min LBFGS
 |  previous  |    0.000000 |    0.003036 |    -7044.449950 | <-- min LBFGS
 +------------+-------------+-------------+-----------------+ <-- min LBFGS
  

--------------------------------------------------------------------------------
 LBFGS: starting iteration        19 with trial guess (lambda=  1.000000)
--------------------------------------------------------------------------------

                           -------------------------------
                                      Unit Cell
                           -------------------------------
        Real Lattice(A)              Reciprocal Lattice(1/A)
     4.9781280    -0.0000000    -0.0000000        1.262158252   0.000000000   0.000000000
    -0.0000000     5.0024566    -0.0000000        0.000000000   1.256019956   0.000000000
    -0.0000000    -0.0000000     5.0024566        0.000000000   0.000000000   1.256019956

                       Lattice parameters(A)       Cell Angles
                    a =      4.978128          alpha =   90.000000
                    b =      5.002457          beta  =   90.000000
                    c =      5.002457          gamma =   90.000000

                Current cell volume =           124.575522 A**3

------------------------------------------------------------------------ <-- SCF
SCF loop      Energy           Fermi           Energy gain       Timer   <-- SCF
                               energy          per atom          (sec)   <-- SCF
------------------------------------------------------------------------ <-- SCF
Initial  -7.04411294E+003  0.00000000E+000                      1002.74  <-- SCF
      1  -7.04412434E+003  3.38674647E+000   1.42510647E-003    1005.05  <-- SCF
      2  -7.04412434E+003  3.38674647E+000   1.17420560E-008    1006.66  <-- SCF
      3  -7.04412434E+003  3.38671974E+000  -2.53081814E-007    1008.29  <-- SCF
      4  -7.04412434E+003  3.38677285E+000  -9.99979245E-009    1009.93  <-- SCF
      5  -7.04412434E+003  3.38677890E+000  -1.25019157E-009    1011.61  <-- SCF
------------------------------------------------------------------------ <-- SCF
 
Final energy, E             =  -7044.112948316     eV
Final free energy (E-TS)    =  -7044.124339702     eV
(energies not corrected for finite basis set)
 
NB est. 0K energy (E-0.5TS)      =  -7044.118644009     eV
 

 *********** Symmetrised Stress Tensor ***********
 *                                               *
 *          Cartesian components (GPa)           *
 * --------------------------------------------- *
 *             x             y             z     *
 *                                               *
 *  x     -0.098368     -0.000000      0.000000  *
 *  y     -0.000000      0.056195      0.000000  *
 *  z      0.000000      0.000000      0.056195  *
 *                                               *
 *  Pressure:   -0.0047                          *
 *                                               *
 *************************************************
  
 +------------+-------------+-------------+-----------------+ <-- min LBFGS
 |    Step    |   lambda    |   F.delta'  |    enthalpy     | <-- min LBFGS
 +------------+-------------+-------------+-----------------+ <-- min LBFGS
 |  previous  |    0.000000 |    0.003036 |    -7044.449950 | <-- min LBFGS
 | trial step |    1.000000 |    0.003150 |    -7044.449958 | <-- min LBFGS
 +------------+-------------+-------------+-----------------+ <-- min LBFGS
  
 LBFGS: finished iteration    19 with enthalpy= -7.04444996E+003 eV
  
 +-----------+-----------------+-----------------+------------+-----+ <-- LBFGS
 | Parameter |      value      |    tolerance    |    units   | OK? | <-- LBFGS
 +-----------+-----------------+-----------------+------------+-----+ <-- LBFGS
 |  dE/ion   |   9.377510E-007 |   2.000000E-005 |         eV | Yes | <-- LBFGS
 |   Smax    |   9.836849E-002 |   1.000000E-001 |        GPa | Yes | <-- LBFGS
 +-----------+-----------------+-----------------+------------+-----+ <-- LBFGS
  
 LBFGS: Geometry optimization completed successfully.

================================================================================
 LBFGS: Final Configuration:
================================================================================

                           -------------------------------
                                      Unit Cell
                           -------------------------------
        Real Lattice(A)              Reciprocal Lattice(1/A)
     4.9781280    -0.0000000    -0.0000000        1.262158252   0.000000000   0.000000000
    -0.0000000     5.0024566    -0.0000000        0.000000000   1.256019956   0.000000000
    -0.0000000    -0.0000000     5.0024566        0.000000000   0.000000000   1.256019956

                       Lattice parameters(A)       Cell Angles
                    a =      4.978128          alpha =   90.000000
                    b =      5.002457          beta  =   90.000000
                    c =      5.002457          gamma =   90.000000

                Current cell volume =           124.575522 A**3

 LBFGS: Final Enthalpy     = -7.04444996E+003 eV
 LBFGS: Final bulk modulus =     717.33548 GPa
  
  **********************************************************
  *** There were at least     1 warnings during this run ***
  *** => please check the whole of this file carefully!  ***
  **********************************************************

 ******************************** Symmetrised Forces ********************************
 *                                                                                  *
 *                           Cartesian components (eV/A)                            *
 * -------------------------------------------------------------------------------- *
 *                         x                    y                    z              *
 *                                                                                  *
 * O               1      0.00000              0.00000              0.00000         *
 * O               2      0.00000              0.00000              0.00000         *
 * O               3      0.00000              0.00000              0.00000         *
 * O               4      0.00000              0.00000              0.00000         *
 * Mg              1      0.00000              0.00000              0.00000         *
 * Mg              2      0.00000              0.00000              0.00000         *
 * Ca              1      0.00000              0.00000              0.00000         *
 * Ca              2      0.00000              0.00000              0.00000         *
 *                                                                                  *
 ************************************************************************************

 *********** Symmetrised Stress Tensor ***********
 *                                               *
 *          Cartesian components (GPa)           *
 * --------------------------------------------- *
 *             x             y             z     *
 *                                               *
 *  x     -0.098368     -0.000000      0.000000  *
 *  y     -0.000000      0.056195      0.000000  *
 *  z      0.000000      0.000000      0.056195  *
 *                                               *
 *  Pressure:   -0.0047                          *
 *                                               *
 *************************************************

 Pseudo atomic calculation performed for O 2s2 2p4

 Converged in 27 iterations to a total energy of -404.4576 eV


 Pseudo atomic calculation performed for Mg 2s2 2p6 3s2

 Converged in 19 iterations to a total energy of -1684.3836 eV


 Pseudo atomic calculation performed for Ca 3s2 3p6 4s2

 Converged in 24 iterations to a total energy of -1001.5497 eV

Charge spilling parameter for spin component 1 = 0.25%

            Orbital Populations       
     Ion    Atom   Orbital             Charge
  -------------------------------------------
      O     1      S                    1.949
      O     1      Px                   1.755
      O     1      Py                   1.627
      O     1      Pz                   1.641
      O     2      S                    1.949
      O     2      Px                   1.755
      O     2      Py                   1.627
      O     2      Pz                   1.641
      O     3      S                    1.944
      O     3      Px                   1.614
      O     3      Py                   1.679
      O     3      Pz                   1.765
      O     4      S                    1.944
      O     4      Px                   1.614
      O     4      Py                   1.679
      O     4      Pz                   1.765
     Mg     1      S                    2.000
     Mg     1      Px                   2.000
     Mg     1      Py                   2.000
     Mg     1      Pz                   2.000
     Mg     1      S                    0.509
     Mg     1      Px                   0.239
     Mg     1      Py                   0.162
     Mg     1      Pz                   0.259
     Mg     2      S                    2.000
     Mg     2      Px                   2.000
     Mg     2      Py                   2.000
     Mg     2      Pz                   2.000
     Mg     2      S                    0.509
     Mg     2      Px                   0.239
     Mg     2      Py                   0.162
     Mg     2      Pz                   0.259
     Ca     1      S                    2.007
     Ca     1      Px                   1.998
     Ca     1      Py                   1.997
     Ca     1      Pz                   1.999
     Ca     1      S                    0.192
     Ca     1      Dzz                  0.156
     Ca     1      Dzy                  0.111
     Ca     1      Dzx                  0.079
     Ca     1      Dxx-yy               0.215
     Ca     1      Dxy                  0.104
     Ca     2      S                    2.007
     Ca     2      Px                   1.998
     Ca     2      Py                   1.997
     Ca     2      Pz                   1.999
     Ca     2      S                    0.192
     Ca     2      Dzz                  0.156
     Ca     2      Dzy                  0.111
     Ca     2      Dzx                  0.079
     Ca     2      Dxx-yy               0.215
     Ca     2      Dxy                  0.104
  -------------------------------------------
                           Total:      64.000
  -------------------------------------------

     Atomic Populations (Mulliken)
     -----------------------------
Species          Ion     s      p      d      f     Total  Charge (e)
=====================================================================
  O               1     1.95   5.02   0.00   0.00   6.97    -0.97
  O               2     1.95   5.02   0.00   0.00   6.97    -0.97
  O               3     1.94   5.06   0.00   0.00   7.00    -1.00
  O               4     1.94   5.06   0.00   0.00   7.00    -1.00
  Mg              1     2.51   6.66   0.00   0.00   9.17     0.83
  Mg              2     2.51   6.66   0.00   0.00   9.17     0.83
  Ca              1     2.20   5.99   0.67   0.00   8.86     1.14
  Ca              2     2.20   5.99   0.67   0.00   8.86     1.14
=====================================================================

                 Bond                   Population      Length (A)
======================================================================
               O 4 -- Mg 1                   0.48        2.48906
               O 3 -- Mg 2                   0.48        2.48906
               O 2 -- Ca 1                   0.25        2.48906
               O 1 -- Ca 2                   0.25        2.48906
               O 4 -- Ca 2                   0.27        2.50123
               O 4 -- Ca 1                   0.27        2.50123
               O 3 -- Ca 2                   0.27        2.50123
               O 3 -- Ca 1                   0.27        2.50123
               O 2 -- Mg 2                   0.44        2.50123
               O 2 -- Mg 1                   0.44        2.50123
               O 1 -- Mg 2                   0.44        2.50123
               O 1 -- Mg 1                   0.44        2.50123
======================================================================


Writing analysis data to MgO.castep_bin

Writing model to MgO.check
 
 A BibTeX formatted list of references used in this run has been written to 
 MgO.bib
 
Initialisation time =     15.51 s
Calculation time    =   1000.46 s
Finalisation time   =      0.13 s
Total time          =   1016.10 s
Peak Memory Use     = 1913552 kB
